ITEM: TIMESTEP
100000
ITEM: NUMBER OF ATOMS
400
ITEM: BOX BOUNDS pp pp pp
0.0000000000000000e+00 2.0851441405707476e+01
0.0000000000000000e+00 2.0851441405707476e+01
-5.2128603514268690e-01 5.2128603514268690e-01
ITEM: ATOMS id type xs ys zs
45 1 0.993776 0.991693 0.5
272 1 0.121823 0.911045 0.5
94 1 0.188593 0.0573675 0.5
367 1 0.262343 0.00716265 0.5
315 1 0.531197 0.0663396 0.5
131 1 0.527102 0.0179515 0.5
222 1 0.612023 0.0140353 0.5
325 1 0.668272 0.953196 0.5
126 1 0.791092 0.996227 0.5
271 1 0.927152 0.0578971 0.5
130 1 0.953469 0.00687118 0.5
145 1 0.97599 0.0544059 0.5
207 1 0.133174 0.966407 0.5
57 1 0.177601 0.942079 0.5
79 1 0.21486 0.0198224 0.5
361 1 0.345581 0.0312579 0.5
188 1 0.33786 0.0814484 0.5
74 1 0.384801 0.061601 0.5
220 1 0.477291 0.0922666 0.5
193 1 0.510386 0.125161 0.5
310 1 0.62293 0.966742 0.5
393 1 0.698103 0.0380979 0.5
181 1 0.727271 0.117782 0.5
133 1 0.774034 0.102759 0.5
336 1 0.900058 0.0960316 0.5
35 1 0.044543 0.995478 0.5
301 1 0.0548721 0.0394857 0.5
29 1 0.240523 0.0559127 0.5
58 1 0.570031 0.0336601 0.5
274 1 0.594164 0.0718259 0.5
331 1 0.659248 0.012741 0.5
279 1 0.819748 0.1306 0.5
146 1 0.840464 0.0231264 0.5
233 1 0.933737 0.136116 0.5
147 1 0.954289 0.0947377 0.5
23 1 0.0217362 0.0740714 0.5
78 1 0.120362 0.123346 0.5
333 1 0.151305 0.0302191 0.5
210 1 0.211622 0.0958221 0.5
38 1 0.303244 0.051202 0.5
337 1 0.444124 0.125462 0.5
101 1 0.38597 0.162235 0.5
291 1 0.556196 0.106559 0.5
253 1 0.577981 0.149479 0.5
250 1 0.683866 0.0849901 0.5
10 1 0.674734 0.134222 0.5
299 1 0.998101 0.117874 0.5
1 1 0.136965 0.0737045 0.5
135 1 0.224532 0.168902 0.5
83 1 0.256483 0.130681 0.5
116 1 0.393377 0.10975 0.5
327 1 0.43849 0.182225 0.5
124 1 0.530065 0.16507 0.5
322 1 0.517645 0.208726 0.5
53 1 0.633944 0.112106 0.5
3 1 0.715307 0.16359 0.5
358 1 0.811441 0.075802 0.5
267 1 0.88818 0.146598 0.5
257 1 0.855836 0.100905 0.5
90 1 0.982728 0.160167 0.5
237 1 0.031745 0.152837 0.5
239 1 0.0725123 0.0935693 0.5
134 1 0.13009 0.174106 0.5
202 1 0.0993703 0.0449617 0.5
368 1 0.182755 0.132284 0.5
75 1 0.228639 0.217989 0.5
390 1 0.275056 0.0889547 0.5
95 1 0.348203 0.126421 0.5
149 1 0.552947 0.24065 0.5
161 1 0.583742 0.198017 0.5
109 1 0.776347 0.151289 0.5
169 1 0.778435 0.251442 0.5
12 1 0.882665 0.200189 0.5
113 1 0.923971 0.227364 0.5
49 1 0.0262524 0.200281 0.5
155 1 0.0551604 0.24444 0.5
102 1 0.00886388 0.244142 0.5
226 1 0.10377 0.258012 0.5
317 1 0.160998 0.290928 0.5
167 1 0.190921 0.250887 0.5
41 1 0.277419 0.188058 0.5
382 1 0.42044 0.22461 0.5
191 1 0.484201 0.164628 0.5
152 1 0.470426 0.212387 0.5
305 1 0.631353 0.161065 0.5
197 1 0.674121 0.183256 0.5
287 1 0.935538 0.181887 0.5
280 1 0.0803547 0.141968 0.5
192 1 0.133294 0.224143 0.5
153 1 0.174751 0.191173 0.5
383 1 0.327489 0.181205 0.5
376 1 0.4377 0.312418 0.5
20 1 0.472599 0.264001 0.5
282 1 0.516597 0.280766 0.5
286 1 0.582342 0.291107 0.5
129 1 0.633651 0.207188 0.5
96 1 0.748805 0.199633 0.5
182 1 0.843888 0.176364 0.5
122 1 0.794883 0.205081 0.5
63 1 0.082428 0.20569 0.5
166 1 0.103467 0.318962 0.5
80 1 0.237908 0.270254 0.5
65 1 0.276196 0.299507 0.5
76 1 0.275574 0.241573 0.5
370 1 0.304395 0.142838 0.5
22 1 0.376312 0.251765 0.5
172 1 0.37262 0.204744 0.5
316 1 0.604588 0.335947 0.5
265 1 0.61187 0.255735 0.5
87 1 0.649324 0.297711 0.5
396 1 0.702305 0.223647 0.5
224 1 0.881298 0.24888 0.5
346 1 0.969895 0.272597 0.5
304 1 0.0571409 0.347668 0.5
263 1 0.144111 0.341348 0.5
26 1 0.325587 0.235892 0.5
378 1 0.300372 0.354442 0.5
400 1 0.499688 0.321865 0.5
380 1 0.724651 0.263031 0.5
227 1 0.658134 0.246166 0.5
171 1 0.868027 0.29679 0.5
343 1 0.905842 0.3214 0.5
28 1 0.921238 0.274825 0.5
328 1 0.971027 0.216694 0.5
198 1 0.959195 0.319118 0.5
260 1 0.101833 0.363518 0.5
14 1 0.1423 0.407137 0.5
212 1 0.20906 0.309962 0.5
168 1 0.223759 0.399969 0.5
19 1 0.343515 0.332406 0.5
302 1 0.406088 0.356697 0.5
219 1 0.420588 0.270823 0.5
195 1 0.62855 0.438637 0.5
154 1 0.834043 0.255361 0.5
323 1 0.800597 0.294781 0.5
262 1 0.862686 0.418366 0.5
240 1 0.945493 0.363762 0.5
103 1 0.94685 0.415953 0.5
289 1 0.0667922 0.292259 0.5
125 1 0.0913702 0.414343 0.5
93 1 0.189931 0.368766 0.5
281 1 0.206597 0.49251 0.5
246 1 0.251501 0.358084 0.5
33 1 0.546844 0.330282 0.5
184 1 0.583434 0.431097 0.5
389 1 0.618939 0.387748 0.5
151 1 0.649951 0.34614 0.5
215 1 0.740023 0.350408 0.5
137 1 0.0156135 0.290648 0.5
238 1 0.0352473 0.389486 0.5
352 1 0.171494 0.440035 0.5
56 1 0.147807 0.556671 0.5
141 1 0.319944 0.281886 0.5
217 1 0.511765 0.369242 0.5
16 1 0.575702 0.37107 0.5
47 1 0.703128 0.305353 0.5
194 1 0.751392 0.305277 0.5
36 1 0.852429 0.339896 0.5
295 1 0.9034 0.386903 0.5
67 1 0.906847 0.442348 0.5
160 1 0.0300414 0.434041 0.5
269 1 0.154435 0.499286 0.5
388 1 0.273705 0.495575 0.5
104 1 0.23749 0.456269 0.5
288 1 0.277412 0.397047 0.5
97 1 0.392807 0.314674 0.5
236 1 0.684854 0.442 0.5
229 1 0.665502 0.396584 0.5
138 1 0.768833 0.395845 0.5
157 1 0.800424 0.340485 0.5
381 1 0.787107 0.470792 0.5
342 1 0.942286 0.47462 0.5
369 1 0.98837 0.396778 0.5
118 1 0.00927514 0.342597 0.5
9 1 0.121839 0.455377 0.5
374 1 0.195377 0.581724 0.5
255 1 0.100792 0.587587 0.5
50 1 0.231828 0.5486 0.5
86 1 0.432008 0.399249 0.5
223 1 0.496621 0.448079 0.5
85 1 0.455246 0.355024 0.5
395 1 0.536982 0.415791 0.5
18 1 0.723092 0.401952 0.5
268 1 0.696373 0.361025 0.5
196 1 0.825682 0.385414 0.5
213 1 0.986462 0.514895 0.5
127 1 0.0345984 0.507083 0.5
375 1 0.0167593 0.563913 0.5
164 1 0.995075 0.468555 0.5
60 1 0.287328 0.570523 0.5
216 1 0.244975 0.590477 0.5
37 1 0.309893 0.532638 0.5
132 1 0.293449 0.453033 0.5
69 1 0.333451 0.38962 0.5
123 1 0.479544 0.404092 0.5
15 1 0.636516 0.487031 0.5
199 1 0.75589 0.438211 0.5
31 1 0.814575 0.431703 0.5
203 1 0.896936 0.487982 0.5
312 1 0.0751184 0.45904 0.5
173 1 0.0613138 0.549869 0.5
300 1 0.338171 0.575425 0.5
329 1 0.329192 0.489793 0.5
89 1 0.38564 0.409737 0.5
148 1 0.438318 0.44861 0.5
178 1 0.539036 0.464567 0.5
163 1 0.588329 0.496739 0.5
158 1 0.73398 0.489656 0.5
298 1 0.77928 0.518859 0.5
363 1 0.879946 0.533024 0.5
21 1 0.926689 0.526109 0.5
372 1 0.912628 0.570994 0.5
311 1 0.0873939 0.631547 0.5
309 1 0.144747 0.713484 0.5
353 1 0.380671 0.613659 0.5
231 1 0.347047 0.435457 0.5
241 1 0.384245 0.476582 0.5
6 1 0.504279 0.497325 0.5
70 1 0.528558 0.563323 0.5
347 1 0.685489 0.498895 0.5
307 1 0.846153 0.464759 0.5
136 1 0.847537 0.574244 0.5
32 1 0.0353469 0.623244 0.5
232 1 0.105008 0.498818 0.5
373 1 0.313027 0.658198 0.5
344 1 0.206755 0.629238 0.5
62 1 0.362993 0.526765 0.5
205 1 0.395935 0.56289 0.5
140 1 0.549037 0.520816 0.5
48 1 0.517881 0.612596 0.5
25 1 0.571438 0.610149 0.5
206 1 0.582884 0.557374 0.5
303 1 0.711556 0.539134 0.5
187 1 0.741398 0.576561 0.5
107 1 0.845359 0.665972 0.5
13 1 0.960764 0.563543 0.5
42 1 0.989796 0.603076 0.5
162 1 0.149969 0.60685 0.5
64 1 0.316018 0.709825 0.5
8 1 0.261032 0.632756 0.5
139 1 0.311323 0.613045 0.5
4 1 0.405046 0.653828 0.5
366 1 0.453886 0.490979 0.5
292 1 0.48657 0.54325 0.5
371 1 0.61597 0.629469 0.5
357 1 0.767902 0.617778 0.5
106 1 0.830965 0.508478 0.5
91 1 0.940743 0.609933 0.5
332 1 0.129077 0.651956 0.5
275 1 0.0908566 0.682277 0.5
34 1 0.1971 0.678109 0.5
362 1 0.222372 0.718259 0.5
110 1 0.410377 0.514652 0.5
159 1 0.442349 0.55273 0.5
277 1 0.572615 0.663394 0.5
339 1 0.530049 0.734279 0.5
294 1 0.624542 0.529861 0.5
24 1 0.624924 0.582369 0.5
174 1 0.658589 0.653528 0.5
335 1 0.821644 0.708703 0.5
397 1 0.00270149 0.702181 0.5
235 1 0.0420209 0.669368 0.5
350 1 0.272435 0.730171 0.5
360 1 0.311547 0.771797 0.5
201 1 0.397472 0.77235 0.5
190 1 0.36001 0.691956 0.5
385 1 0.431837 0.614513 0.5
66 1 0.470787 0.590528 0.5
245 1 0.721022 0.625132 0.5
180 1 0.679554 0.58924 0.5
297 1 0.833285 0.617849 0.5
398 1 0.799731 0.563396 0.5
27 1 0.870506 0.725998 0.5
259 1 0.878246 0.62776 0.5
177 1 0.997544 0.651649 0.5
242 1 0.249096 0.680284 0.5
175 1 0.182889 0.743867 0.5
84 1 0.270338 0.79892 0.5
319 1 0.310762 0.818126 0.5
77 1 0.35506 0.738701 0.5
251 1 0.520405 0.669922 0.5
111 1 0.617062 0.679288 0.5
88 1 0.799431 0.657225 0.5
313 1 0.772023 0.707566 0.5
326 1 0.794389 0.810272 0.5
73 1 0.938027 0.659167 0.5
278 1 0.0495006 0.721231 0.5
234 1 0.0965797 0.743089 0.5
121 1 0.27231 0.845591 0.5
117 1 0.305828 0.878914 0.5
82 1 0.349811 0.799195 0.5
120 1 0.446461 0.808384 0.5
334 1 0.445222 0.858264 0.5
314 1 0.424564 0.694274 0.5
112 1 0.485352 0.759997 0.5
81 1 0.575906 0.71434 0.5
324 1 0.74541 0.665561 0.5
228 1 0.702913 0.724157 0.5
359 1 0.8413 0.767097 0.5
100 1 0.895329 0.684165 0.5
71 1 0.922781 0.77259 0.5
204 1 0.963203 0.748761 0.5
40 1 0.0128331 0.814928 0.5
230 1 0.230789 0.766087 0.5
345 1 0.346293 0.847221 0.5
290 1 0.392096 0.819326 0.5
179 1 0.465505 0.6662 0.5
247 1 0.484739 0.708521 0.5
256 1 0.662345 0.698204 0.5
39 1 0.700586 0.673133 0.5
144 1 0.744209 0.802194 0.5
284 1 0.011659 0.747163 0.5
208 1 0.95628 0.701914 0.5
341 1 0.0349637 0.871921 0.5
356 1 0.0478318 0.77609 0.5
386 1 0.137241 0.765048 0.5
156 1 0.222981 0.8265 0.5
189 1 0.361653 0.892673 0.5
98 1 0.473586 0.899908 0.5
296 1 0.749416 0.749247 0.5
330 1 0.843045 0.834512 0.5
54 1 0.794972 0.764833 0.5
264 1 0.916647 0.727443 0.5
5 1 0.973116 0.850913 0.5
306 1 0.92942 0.871585 0.5
379 1 0.088964 0.792815 0.5
285 1 0.209791 0.879133 0.5
391 1 0.316721 0.926677 0.5
387 1 0.401381 0.867242 0.5
185 1 0.481844 0.945174 0.5
119 1 0.52046 0.901086 0.5
221 1 0.437465 0.745955 0.5
46 1 0.4953 0.804707 0.5
59 1 0.619016 0.734799 0.5
142 1 0.708244 0.772903 0.5
340 1 0.651562 0.853747 0.5
276 1 0.745587 0.872758 0.5
252 1 0.879196 0.796337 0.5
348 1 0.970439 0.907853 0.5
209 1 0.970605 0.799757 0.5
92 1 0.178384 0.792681 0.5
150 1 0.224803 0.928315 0.5
43 1 0.363604 0.962152 0.5
365 1 0.635749 0.784546 0.5
258 1 0.667696 0.75039 0.5
270 1 0.709991 0.845177 0.5
261 1 0.584952 0.823624 0.5
283 1 0.709838 0.933822 0.5
266 1 0.689197 0.887469 0.5
11 1 0.750916 0.970286 0.5
351 1 0.928782 0.824522 0.5
244 1 0.0573098 0.94735 0.5
318 1 0.0669581 0.836326 0.5
225 1 0.13653 0.816851 0.5
338 1 0.407656 0.929197 0.5
99 1 0.478246 0.992384 0.5
17 1 0.579012 0.764844 0.5
394 1 0.740834 0.0218615 0.5
200 1 0.75922 0.91763 0.5
384 1 0.796912 0.856713 0.5
176 1 0.0086435 0.948136 0.5
377 1 0.0722221 0.897521 0.5
392 1 0.112365 0.859469 0.5
72 1 0.271154 0.944388 0.5
114 1 0.261157 0.896985 0.5
364 1 0.315422 0.975514 0.5
165 1 0.560154 0.929796 0.5
105 1 0.53545 0.839306 0.5
249 1 0.49265 0.853457 0.5
308 1 0.672454 0.809864 0.5
55 1 0.604211 0.921735 0.5
349 1 0.608435 0.870977 0.5
44 1 0.780485 0.0443196 0.5
61 1 0.83169 0.974508 0.5
321 1 0.810968 0.920174 0.5
248 1 0.934899 0.964672 0.5
30 1 0.165982 0.893487 0.5
211 1 0.173971 0.844558 0.5
7 1 0.385639 0.00392593 0.5
186 1 0.426979 0.972795 0.5
68 1 0.484467 0.0439933 0.5
320 1 0.527246 0.973698 0.5
254 1 0.535623 0.779058 0.5
214 1 0.561471 0.87769 0.5
51 1 0.699236 0.98858 0.5
2 1 0.905954 0.00198845 0.5
52 1 0.876271 0.961286 0.5
355 1 0.86203 0.903434 0.5
293 1 0.0913641 0.983911 0.5
143 1 0.174987 0.990545 0.5
399 1 0.232654 0.972752 0.5
218 1 0.430754 0.0225342 0.5
115 1 0.432069 0.0748263 0.5
108 1 0.573961 0.978234 0.5
354 1 0.637871 0.052808 0.5
273 1 0.647677 0.911168 0.5
183 1 0.738141 0.0675904 0.5
243 1 0.87869 0.0553771 0.5
170 1 0.883067 0.860336 0.5
128 1 0.911193 0.916912 0.5
