ITEM: TIMESTEP
100000
ITEM: NUMBER OF ATOMS
400
ITEM: BOX BOUNDS pp pp pp
0.0000000000000000e+00 2.0739033894608504e+01
0.0000000000000000e+00 2.0739033894608504e+01
-5.1847584736521257e-01 5.1847584736521257e-01
ITEM: ATOMS id type xs ys zs
241 1 0.0155007 0.0118557 0.5
272 1 0.0659914 0.0024161 0.5
264 1 0.106007 0.0277911 0.5
276 1 0.148156 0.00282504 0.5
29 1 0.194882 0.00613472 0.5
351 1 0.289417 0.0195118 0.5
107 1 0.389846 0.0171435 0.5
250 1 0.444624 0.0105441 0.5
18 1 0.490767 0.0235548 0.5
286 1 0.544539 0.0240915 0.5
53 1 0.593653 0.0320326 0.5
135 1 0.74313 0.0226866 0.5
131 1 0.791897 0.00875343 0.5
197 1 0.876844 0.0224561 0.5
333 1 0.918162 0.00614078 0.5
66 1 0.000241716 0.056573 0.5
45 1 0.0571951 0.0482192 0.5
375 1 0.204797 0.0578782 0.5
148 1 0.249448 0.0447687 0.5
189 1 0.338221 0.0509859 0.5
80 1 0.442328 0.0593346 0.5
245 1 0.643252 0.0518779 0.5
236 1 0.689011 0.0397524 0.5
179 1 0.786178 0.0612449 0.5
273 1 0.836386 0.04712 0.5
338 1 0.911763 0.0558066 0.5
122 1 0.954211 0.0348927 0.5
149 1 0.0382879 0.095617 0.5
167 1 0.0902055 0.0844909 0.5
10 1 0.148951 0.0724583 0.5
67 1 0.290286 0.0726131 0.5
16 1 0.383272 0.0700439 0.5
309 1 0.520619 0.070983 0.5
109 1 0.567738 0.0840352 0.5
384 1 0.628509 0.0958941 0.5
2 1 0.679676 0.0850429 0.5
60 1 0.727221 0.0684382 0.5
125 1 0.87048 0.0789611 0.5
204 1 0.946853 0.0868379 0.5
24 1 0.128989 0.116834 0.5
364 1 0.181419 0.103149 0.5
393 1 0.232896 0.0986304 0.5
305 1 0.275706 0.118825 0.5
312 1 0.334312 0.0974999 0.5
110 1 0.380447 0.117817 0.5
259 1 0.431852 0.111673 0.5
252 1 0.503439 0.115476 0.5
371 1 0.594973 0.126591 0.5
111 1 0.724186 0.118996 0.5
311 1 0.770821 0.107391 0.5
140 1 0.816381 0.102308 0.5
32 1 0.855959 0.126631 0.5
367 1 0.905482 0.115358 0.5
177 1 0.990187 0.111321 0.5
82 1 0.0279183 0.143678 0.5
206 1 0.0746235 0.138098 0.5
180 1 0.167631 0.149307 0.5
257 1 0.234658 0.146388 0.5
324 1 0.320247 0.145613 0.5
350 1 0.414078 0.154948 0.5
234 1 0.464092 0.144847 0.5
92 1 0.549171 0.130937 0.5
14 1 0.662309 0.135253 0.5
306 1 0.812205 0.150741 0.5
228 1 0.0587366 0.183778 0.5
81 1 0.110968 0.170881 0.5
17 1 0.193062 0.19135 0.5
210 1 0.275961 0.180578 0.5
62 1 0.362495 0.167373 0.5
188 1 0.455363 0.189649 0.5
126 1 0.508114 0.174795 0.5
372 1 0.575613 0.170508 0.5
374 1 0.621508 0.165235 0.5
271 1 0.661093 0.188485 0.5
344 1 0.70138 0.164605 0.5
74 1 0.75252 0.165329 0.5
123 1 0.841524 0.19019 0.5
297 1 0.887698 0.168033 0.5
132 1 0.93642 0.172114 0.5
155 1 0.985645 0.164308 0.5
366 1 0.0168874 0.201958 0.5
97 1 0.0997824 0.214688 0.5
353 1 0.15442 0.217183 0.5
268 1 0.252807 0.223372 0.5
398 1 0.304914 0.218375 0.5
137 1 0.348181 0.209017 0.5
255 1 0.400098 0.212855 0.5
70 1 0.548243 0.216591 0.5
46 1 0.594593 0.222628 0.5
217 1 0.74452 0.222064 0.5
304 1 0.792798 0.196089 0.5
115 1 0.916291 0.213242 0.5
175 1 0.970119 0.208461 0.5
41 1 0.003168 0.247188 0.5
157 1 0.0716919 0.253035 0.5
69 1 0.211262 0.24249 0.5
55 1 0.440528 0.23913 0.5
121 1 0.486795 0.228727 0.5
168 1 0.639117 0.234849 0.5
360 1 0.686415 0.242579 0.5
326 1 0.816298 0.238364 0.5
85 1 0.872098 0.228261 0.5
275 1 0.947906 0.248933 0.5
230 1 0.0342598 0.285455 0.5
281 1 0.117207 0.276325 0.5
335 1 0.166129 0.273461 0.5
352 1 0.264858 0.267651 0.5
396 1 0.322331 0.265717 0.5
13 1 0.388241 0.270479 0.5
239 1 0.441839 0.290111 0.5
227 1 0.486539 0.282572 0.5
134 1 0.530818 0.262265 0.5
101 1 0.577042 0.269483 0.5
87 1 0.667124 0.289957 0.5
112 1 0.719368 0.276855 0.5
6 1 0.782664 0.272795 0.5
361 1 0.841415 0.278656 0.5
261 1 0.900522 0.265757 0.5
313 1 0.0791303 0.308504 0.5
395 1 0.143191 0.32013 0.5
28 1 0.221823 0.295192 0.5
283 1 0.290518 0.30745 0.5
390 1 0.341568 0.318926 0.5
117 1 0.529115 0.321137 0.5
263 1 0.620339 0.295245 0.5
321 1 0.747685 0.314909 0.5
349 1 0.825141 0.321959 0.5
105 1 0.882379 0.309191 0.5
289 1 0.951574 0.294213 0.5
308 1 0.996085 0.310869 0.5
347 1 0.0331724 0.342002 0.5
91 1 0.0854578 0.354007 0.5
39 1 0.25172 0.344225 0.5
129 1 0.391115 0.324188 0.5
329 1 0.43824 0.341961 0.5
98 1 0.486355 0.339665 0.5
136 1 0.57514 0.33159 0.5
362 1 0.627796 0.345057 0.5
144 1 0.683557 0.336584 0.5
235 1 0.784681 0.341239 0.5
287 1 0.864598 0.35137 0.5
27 1 0.915752 0.346937 0.5
307 1 0.962362 0.341502 0.5
103 1 0.126782 0.374624 0.5
336 1 0.177801 0.357927 0.5
162 1 0.29313 0.357007 0.5
220 1 0.350247 0.371527 0.5
96 1 0.397371 0.374536 0.5
193 1 0.528083 0.370324 0.5
211 1 0.591197 0.375547 0.5
290 1 0.661424 0.381501 0.5
37 1 0.725199 0.361494 0.5
370 1 0.822842 0.374366 0.5
254 1 0.99157 0.384349 0.5
154 1 0.042296 0.403014 0.5
100 1 0.0877963 0.401133 0.5
23 1 0.164325 0.412067 0.5
225 1 0.221063 0.387945 0.5
267 1 0.268732 0.403581 0.5
163 1 0.317948 0.407337 0.5
381 1 0.433343 0.405877 0.5
376 1 0.474738 0.38863 0.5
377 1 0.571087 0.419221 0.5
34 1 0.618652 0.414082 0.5
169 1 0.72639 0.407353 0.5
166 1 0.777161 0.389413 0.5
57 1 0.845111 0.416736 0.5
25 1 0.88691 0.393499 0.5
33 1 0.934423 0.391627 0.5
291 1 0.0177426 0.445562 0.5
127 1 0.0671729 0.443903 0.5
73 1 0.121495 0.436007 0.5
145 1 0.207859 0.432476 0.5
199 1 0.29875 0.451501 0.5
202 1 0.384829 0.419673 0.5
195 1 0.504565 0.436851 0.5
212 1 0.673406 0.425618 0.5
56 1 0.76107 0.443573 0.5
253 1 0.809455 0.449441 0.5
330 1 0.900724 0.439917 0.5
385 1 0.96896 0.427532 0.5
238 1 0.160982 0.46086 0.5
298 1 0.205052 0.483804 0.5
294 1 0.245561 0.457692 0.5
65 1 0.344156 0.459289 0.5
358 1 0.412677 0.461814 0.5
327 1 0.459548 0.45453 0.5
365 1 0.5387 0.467216 0.5
9 1 0.587425 0.473477 0.5
215 1 0.638356 0.457972 0.5
78 1 0.721438 0.470845 0.5
251 1 0.856435 0.47379 0.5
130 1 0.943463 0.466195 0.5
77 1 0.988488 0.481651 0.5
171 1 0.0439047 0.490197 0.5
322 1 0.0987262 0.484575 0.5
249 1 0.157408 0.506469 0.5
198 1 0.262109 0.500854 0.5
61 1 0.309866 0.500872 0.5
3 1 0.379601 0.502977 0.5
341 1 0.441992 0.497569 0.5
205 1 0.498704 0.486623 0.5
182 1 0.676922 0.490369 0.5
176 1 0.762458 0.490428 0.5
203 1 0.80679 0.508901 0.5
208 1 0.895651 0.497591 0.5
76 1 0.052307 0.539306 0.5
4 1 0.114946 0.526772 0.5
219 1 0.20096 0.529226 0.5
120 1 0.41473 0.537524 0.5
139 1 0.479379 0.529224 0.5
391 1 0.540922 0.526333 0.5
339 1 0.589543 0.535748 0.5
142 1 0.630617 0.517328 0.5
187 1 0.676294 0.544746 0.5
280 1 0.72165 0.519758 0.5
392 1 0.764262 0.539583 0.5
246 1 0.852746 0.524433 0.5
95 1 0.898349 0.546874 0.5
277 1 0.941968 0.520515 0.5
295 1 0.988328 0.528097 0.5
233 1 0.0137903 0.567316 0.5
43 1 0.0857449 0.572744 0.5
113 1 0.159762 0.555692 0.5
89 1 0.22133 0.572278 0.5
325 1 0.263371 0.559 0.5
356 1 0.318481 0.557812 0.5
348 1 0.367507 0.55144 0.5
102 1 0.448877 0.572269 0.5
20 1 0.51269 0.565622 0.5
300 1 0.637037 0.567311 0.5
274 1 0.7228 0.5677 0.5
387 1 0.822006 0.5645 0.5
133 1 0.952588 0.566171 0.5
42 1 0.0401972 0.608044 0.5
116 1 0.132476 0.59454 0.5
270 1 0.183232 0.598917 0.5
143 1 0.248693 0.610674 0.5
229 1 0.29366 0.6017 0.5
22 1 0.352222 0.599147 0.5
174 1 0.398376 0.586985 0.5
88 1 0.487117 0.609414 0.5
288 1 0.540089 0.603164 0.5
301 1 0.583244 0.583498 0.5
319 1 0.668065 0.601957 0.5
231 1 0.778532 0.58723 0.5
161 1 0.869221 0.583247 0.5
378 1 0.913725 0.595863 0.5
337 1 0.0977223 0.626328 0.5
232 1 0.147143 0.640833 0.5
63 1 0.387294 0.637958 0.5
317 1 0.434944 0.61759 0.5
75 1 0.570008 0.641514 0.5
389 1 0.625893 0.62467 0.5
83 1 0.743261 0.626046 0.5
58 1 0.790103 0.640029 0.5
5 1 0.832235 0.613788 0.5
355 1 0.87962 0.640768 0.5
334 1 0.934824 0.638739 0.5
150 1 0.974005 0.613211 0.5
79 1 0.00129313 0.656098 0.5
68 1 0.0584313 0.667882 0.5
242 1 0.201143 0.647454 0.5
292 1 0.245003 0.660347 0.5
11 1 0.29604 0.669166 0.5
342 1 0.3429 0.648016 0.5
282 1 0.425351 0.675498 0.5
368 1 0.474011 0.665199 0.5
108 1 0.521287 0.646595 0.5
296 1 0.611073 0.670411 0.5
207 1 0.679881 0.647254 0.5
310 1 0.753746 0.670605 0.5
359 1 0.833743 0.664578 0.5
90 1 0.0161393 0.707886 0.5
128 1 0.108925 0.69315 0.5
260 1 0.162033 0.692773 0.5
49 1 0.211831 0.698186 0.5
59 1 0.268145 0.709495 0.5
357 1 0.332005 0.703647 0.5
248 1 0.379389 0.690916 0.5
218 1 0.499416 0.703046 0.5
51 1 0.566075 0.691571 0.5
118 1 0.663375 0.699672 0.5
146 1 0.706369 0.687176 0.5
186 1 0.795903 0.694814 0.5
340 1 0.887196 0.693886 0.5
30 1 0.960761 0.688111 0.5
400 1 0.0606884 0.719179 0.5
192 1 0.12083 0.735822 0.5
247 1 0.18137 0.735334 0.5
50 1 0.40401 0.730861 0.5
164 1 0.450869 0.71966 0.5
343 1 0.541952 0.734832 0.5
331 1 0.609266 0.722179 0.5
278 1 0.698383 0.734828 0.5
114 1 0.749433 0.72041 0.5
119 1 0.843051 0.710413 0.5
36 1 0.928201 0.724264 0.5
285 1 0.0248848 0.752911 0.5
72 1 0.0775409 0.763261 0.5
64 1 0.238142 0.761299 0.5
399 1 0.29856 0.74528 0.5
183 1 0.357619 0.749244 0.5
383 1 0.44136 0.771231 0.5
160 1 0.496471 0.751335 0.5
269 1 0.592345 0.765509 0.5
382 1 0.647359 0.753792 0.5
279 1 0.747496 0.772443 0.5
7 1 0.795028 0.753924 0.5
15 1 0.840795 0.758323 0.5
52 1 0.888365 0.749575 0.5
221 1 0.975591 0.745488 0.5
345 1 0.0374174 0.798548 0.5
284 1 0.130233 0.784223 0.5
47 1 0.189926 0.782482 0.5
48 1 0.273818 0.806152 0.5
265 1 0.328829 0.788274 0.5
302 1 0.387659 0.791503 0.5
262 1 0.492858 0.80238 0.5
191 1 0.539088 0.791602 0.5
222 1 0.629655 0.797839 0.5
323 1 0.696205 0.785475 0.5
318 1 0.828812 0.80431 0.5
172 1 0.929632 0.775765 0.5
12 1 0.979844 0.804223 0.5
165 1 0.0897944 0.807493 0.5
152 1 0.153975 0.828534 0.5
243 1 0.219607 0.822022 0.5
94 1 0.309697 0.83566 0.5
213 1 0.356568 0.826088 0.5
369 1 0.445742 0.830401 0.5
299 1 0.538163 0.838662 0.5
181 1 0.585267 0.818674 0.5
224 1 0.736853 0.835948 0.5
21 1 0.777256 0.807574 0.5
31 1 0.89068 0.807264 0.5
315 1 0.939715 0.82902 0.5
158 1 0.0418484 0.848136 0.5
173 1 0.0871166 0.855322 0.5
138 1 0.190822 0.861145 0.5
185 1 0.258825 0.849819 0.5
40 1 0.395805 0.863022 0.5
394 1 0.629631 0.848231 0.5
314 1 0.679193 0.850259 0.5
190 1 0.781376 0.853344 0.5
196 1 0.836999 0.856761 0.5
106 1 0.891596 0.858849 0.5
379 1 0.129819 0.87471 0.5
170 1 0.227308 0.89512 0.5
99 1 0.303539 0.886006 0.5
209 1 0.351554 0.873612 0.5
184 1 0.428602 0.895022 0.5
266 1 0.471874 0.877204 0.5
216 1 0.518732 0.887839 0.5
380 1 0.590172 0.874563 0.5
8 1 0.684412 0.903138 0.5
44 1 0.725951 0.881998 0.5
240 1 0.811866 0.897928 0.5
86 1 0.863362 0.900342 0.5
26 1 0.938555 0.876829 0.5
54 1 0.986247 0.875592 0.5
373 1 0.0285393 0.914756 0.5
71 1 0.0776929 0.906134 0.5
178 1 0.135044 0.935192 0.5
346 1 0.182864 0.908431 0.5
38 1 0.270088 0.917688 0.5
226 1 0.32893 0.93083 0.5
84 1 0.38318 0.911682 0.5
93 1 0.478723 0.926094 0.5
316 1 0.541827 0.932942 0.5
141 1 0.590405 0.926196 0.5
258 1 0.636438 0.915214 0.5
237 1 0.758257 0.917163 0.5
104 1 0.907913 0.911268 0.5
151 1 0.984752 0.930415 0.5
1 1 0.0163833 0.965471 0.5
303 1 0.0671609 0.951649 0.5
320 1 0.178226 0.956105 0.5
153 1 0.224828 0.945444 0.5
386 1 0.297823 0.966198 0.5
354 1 0.41867 0.94578 0.5
256 1 0.622876 0.957876 0.5
156 1 0.671027 0.952118 0.5
35 1 0.716696 0.935647 0.5
147 1 0.797459 0.957806 0.5
332 1 0.841323 0.941634 0.5
124 1 0.885592 0.965876 0.5
214 1 0.934994 0.957166 0.5
244 1 0.105866 0.979041 0.5
200 1 0.250567 0.992694 0.5
397 1 0.340048 0.999156 0.5
194 1 0.377983 0.969985 0.5
388 1 0.464898 0.968998 0.5
201 1 0.511613 0.968735 0.5
19 1 0.577502 0.976561 0.5
223 1 0.645228 0.999431 0.5
159 1 0.698351 0.995039 0.5
293 1 0.741536 0.973829 0.5
328 1 0.838546 0.98763 0.5
363 1 0.971215 0.988887 0.5
