ITEM: TIMESTEP
100000
ITEM: NUMBER OF ATOMS
400
ITEM: BOX BOUNDS pp pp pp
0.0000000000000000e+00 2.0965696734438364e+01
0.0000000000000000e+00 2.0965696734438364e+01
-5.2414241836095909e-01 5.2414241836095909e-01
ITEM: ATOMS id type xs ys zs
118 1 0.0722487 0.00352884 0.5
353 1 0.185304 0.11928 0.5
247 1 0.149335 0.0811895 0.5
350 1 0.234823 0.0372698 0.5
273 1 0.335383 0.0552908 0.5
289 1 0.41963 0.956008 0.5
280 1 0.558841 0.927407 0.5
165 1 0.762642 0.918232 0.5
34 1 0.768796 0.037904 0.5
81 1 0.729408 0.0115918 0.5
198 1 0.822099 0.111687 0.5
69 1 0.869511 0.087789 0.5
146 1 0.859472 0.0248822 0.5
87 1 0.94013 0.96417 0.5
183 1 0.0985527 0.0546071 0.5
250 1 0.0529633 0.061063 0.5
339 1 0.0879389 0.0999554 0.5
84 1 0.282393 0.156147 0.5
396 1 0.354013 0.00159065 0.5
371 1 0.5084 0.980321 0.5
53 1 0.595643 0.0177181 0.5
254 1 0.634572 0.964267 0.5
133 1 0.740675 0.0789324 0.5
285 1 0.0422103 0.108969 0.5
224 1 0.198259 0.071464 0.5
308 1 0.309273 0.0166759 0.5
379 1 0.353245 0.107669 0.5
110 1 0.547173 0.0509499 0.5
96 1 0.573104 0.203315 0.5
90 1 0.53869 0.108015 0.5
86 1 0.662336 0.926818 0.5
216 1 0.7146 0.945578 0.5
373 1 0.67645 0.982952 0.5
67 1 0.777957 0.159191 0.5
168 1 0.915462 0.0673825 0.5
191 1 0.937422 0.0165505 0.5
257 1 0.962605 0.0657039 0.5
301 1 0.0235962 0.0239599 0.5
114 1 0.0679877 0.150121 0.5
7 1 0.128109 0.127978 0.5
180 1 0.302543 0.106334 0.5
228 1 0.328031 0.14666 0.5
384 1 0.406807 0.00502624 0.5
102 1 0.434122 0.0414777 0.5
296 1 0.589443 0.0700582 0.5
249 1 0.694081 0.0433552 0.5
278 1 0.697844 0.10253 0.5
70 1 0.00816944 0.0717095 0.5
282 1 0.995134 0.117521 0.5
356 1 0.117445 0.175172 0.5
236 1 0.27165 0.201911 0.5
382 1 0.237389 0.111372 0.5
270 1 0.315859 0.265669 0.5
251 1 0.349505 0.18952 0.5
83 1 0.560701 0.151091 0.5
239 1 0.613665 0.167972 0.5
300 1 0.642937 0.0168476 0.5
56 1 0.635218 0.0854548 0.5
175 1 0.787356 0.268611 0.5
128 1 0.782119 0.222604 0.5
177 1 0.91249 0.160033 0.5
342 1 0.0396416 0.207315 0.5
18 1 0.0863209 0.221762 0.5
65 1 0.133067 0.223774 0.5
355 1 0.129476 0.273092 0.5
255 1 0.233791 0.161657 0.5
19 1 0.266641 0.247255 0.5
45 1 0.385405 0.044432 0.5
148 1 0.591386 0.117922 0.5
36 1 0.656125 0.132854 0.5
200 1 0.73417 0.185855 0.5
179 1 0.754279 0.302966 0.5
361 1 0.864221 0.135439 0.5
290 1 0.00982289 0.159968 0.5
42 1 0.0930875 0.301065 0.5
194 1 0.208799 0.33999 0.5
209 1 0.316022 0.221583 0.5
352 1 0.400313 0.200638 0.5
92 1 0.446928 0.0901478 0.5
268 1 0.499768 0.0889398 0.5
88 1 0.514982 0.168446 0.5
160 1 0.726104 0.138853 0.5
25 1 0.68819 0.171048 0.5
104 1 0.734126 0.245662 0.5
112 1 0.821113 0.1705 0.5
357 1 0.989254 0.208354 0.5
331 1 0.939696 0.109246 0.5
386 1 0.0607502 0.259321 0.5
262 1 0.17426 0.246176 0.5
295 1 0.163787 0.161221 0.5
370 1 0.197164 0.198238 0.5
398 1 0.305486 0.315629 0.5
105 1 0.376962 0.147764 0.5
188 1 0.395298 0.0890437 0.5
263 1 0.647914 0.204452 0.5
360 1 0.692143 0.286594 0.5
367 1 0.837281 0.274792 0.5
241 1 0.959713 0.160787 0.5
135 1 0.00931178 0.266875 0.5
145 1 0.0429398 0.305124 0.5
51 1 0.201644 0.403396 0.5
22 1 0.147743 0.314521 0.5
109 1 0.218826 0.257043 0.5
231 1 0.363396 0.232815 0.5
115 1 0.423312 0.133569 0.5
319 1 0.436811 0.235183 0.5
391 1 0.468047 0.155128 0.5
147 1 0.600109 0.295393 0.5
269 1 0.530225 0.267802 0.5
276 1 0.688044 0.229093 0.5
252 1 0.651823 0.320548 0.5
17 1 0.724056 0.338768 0.5
205 1 0.830292 0.218818 0.5
334 1 0.871677 0.18826 0.5
221 1 0.0555245 0.349037 0.5
246 1 0.19015 0.29503 0.5
211 1 0.476208 0.202699 0.5
377 1 0.528011 0.216729 0.5
129 1 0.693403 0.373603 0.5
347 1 0.712251 0.42306 0.5
225 1 0.882778 0.280875 0.5
137 1 0.878974 0.233715 0.5
337 1 0.94131 0.2115 0.5
387 1 0.101726 0.354318 0.5
139 1 0.239641 0.373225 0.5
12 1 0.278712 0.406332 0.5
354 1 0.256565 0.309061 0.5
197 1 0.341686 0.344834 0.5
187 1 0.362562 0.297769 0.5
196 1 0.397403 0.263731 0.5
10 1 0.488089 0.248664 0.5
294 1 0.445381 0.28603 0.5
101 1 0.6501 0.261332 0.5
181 1 0.595044 0.250078 0.5
157 1 0.64101 0.384911 0.5
134 1 0.802799 0.318589 0.5
275 1 0.949465 0.308944 0.5
75 1 0.937426 0.263388 0.5
375 1 0.0987637 0.401192 0.5
52 1 0.162873 0.366297 0.5
372 1 0.280246 0.352272 0.5
30 1 0.385427 0.366905 0.5
167 1 0.551442 0.362359 0.5
271 1 0.490132 0.294555 0.5
302 1 0.554799 0.315141 0.5
260 1 0.623366 0.437458 0.5
374 1 0.775613 0.355516 0.5
317 1 0.783502 0.403195 0.5
149 1 0.851107 0.324113 0.5
172 1 0.994102 0.410903 0.5
399 1 0.0487681 0.397831 0.5
365 1 0.0822464 0.542191 0.5
120 1 0.0761923 0.444549 0.5
322 1 0.240198 0.435057 0.5
130 1 0.412529 0.40492 0.5
293 1 0.406504 0.322167 0.5
106 1 0.599365 0.344931 0.5
281 1 0.822327 0.361771 0.5
320 1 0.975866 0.360755 0.5
297 1 0.997395 0.317998 0.5
316 1 0.14746 0.412263 0.5
326 1 0.285513 0.475995 0.5
328 1 0.366485 0.425318 0.5
94 1 0.340744 0.476715 0.5
91 1 0.320089 0.435626 0.5
195 1 0.329349 0.390853 0.5
307 1 0.441305 0.349648 0.5
23 1 0.497751 0.434041 0.5
161 1 0.50265 0.338639 0.5
24 1 0.503666 0.386218 0.5
283 1 0.544994 0.431375 0.5
385 1 0.586402 0.41213 0.5
199 1 0.669928 0.437621 0.5
144 1 0.741168 0.38438 0.5
143 1 0.900873 0.328993 0.5
327 1 0.928137 0.36914 0.5
335 1 0.982558 0.463184 0.5
124 1 0.0258356 0.444895 0.5
201 1 0.257804 0.61125 0.5
132 1 0.389711 0.469827 0.5
274 1 0.458933 0.3956 0.5
154 1 0.652409 0.489585 0.5
142 1 0.747212 0.487412 0.5
169 1 0.757888 0.445059 0.5
244 1 0.0182667 0.49437 0.5
171 1 0.177771 0.498367 0.5
323 1 0.128555 0.461922 0.5
245 1 0.184209 0.446001 0.5
159 1 0.264461 0.518853 0.5
325 1 0.344264 0.566746 0.5
41 1 0.465411 0.488079 0.5
155 1 0.573049 0.467898 0.5
6 1 0.647959 0.544866 0.5
299 1 0.708228 0.515195 0.5
95 1 0.714973 0.56279 0.5
61 1 0.706666 0.467197 0.5
131 1 0.829939 0.407655 0.5
344 1 0.86651 0.380569 0.5
217 1 0.925448 0.424831 0.5
279 1 0.0638698 0.49214 0.5
210 1 0.206132 0.536728 0.5
16 1 0.231578 0.488056 0.5
202 1 0.249131 0.565133 0.5
55 1 0.361582 0.520171 0.5
62 1 0.418864 0.509682 0.5
82 1 0.442233 0.441805 0.5
222 1 0.527678 0.47505 0.5
227 1 0.55599 0.514982 0.5
368 1 0.594617 0.551264 0.5
233 1 0.808722 0.517133 0.5
304 1 0.801316 0.462171 0.5
284 1 0.873014 0.435546 0.5
162 1 0.937437 0.471755 0.5
378 1 0.11271 0.576549 0.5
174 1 0.122693 0.517194 0.5
310 1 0.415096 0.566184 0.5
14 1 0.457396 0.53944 0.5
189 1 0.508512 0.516848 0.5
66 1 0.610345 0.500221 0.5
298 1 0.614073 0.648896 0.5
358 1 0.749311 0.619993 0.5
240 1 0.753035 0.534232 0.5
166 1 0.843559 0.479657 0.5
178 1 0.891749 0.477978 0.5
38 1 0.891174 0.560827 0.5
332 1 0.0306385 0.540746 0.5
113 1 0.141796 0.618 0.5
140 1 0.20641 0.588183 0.5
125 1 0.165064 0.682929 0.5
389 1 0.265006 0.677131 0.5
123 1 0.308681 0.534109 0.5
369 1 0.337959 0.613549 0.5
264 1 0.501319 0.567454 0.5
47 1 0.45712 0.585836 0.5
108 1 0.550892 0.564923 0.5
151 1 0.671491 0.646243 0.5
229 1 0.626672 0.601667 0.5
49 1 0.860935 0.526432 0.5
313 1 0.983132 0.52999 0.5
213 1 0.156097 0.731889 0.5
314 1 0.231512 0.647375 0.5
26 1 0.25975 0.727433 0.5
218 1 0.299373 0.639376 0.5
48 1 0.350013 0.711898 0.5
363 1 0.360767 0.662685 0.5
80 1 0.493333 0.614258 0.5
388 1 0.53877 0.612754 0.5
58 1 0.683575 0.597832 0.5
138 1 0.796255 0.618379 0.5
20 1 0.771804 0.679758 0.5
203 1 0.7943 0.564294 0.5
362 1 0.00670263 0.580729 0.5
79 1 0.0951679 0.620525 0.5
311 1 0.164604 0.568366 0.5
303 1 0.300335 0.581006 0.5
141 1 0.307162 0.695431 0.5
116 1 0.381568 0.597892 0.5
152 1 0.425894 0.626351 0.5
59 1 0.561716 0.700531 0.5
215 1 0.839204 0.653815 0.5
340 1 0.914733 0.519695 0.5
98 1 0.939371 0.574048 0.5
234 1 0.0546344 0.587356 0.5
31 1 0.187512 0.641165 0.5
258 1 0.208724 0.693288 0.5
336 1 0.21592 0.762165 0.5
117 1 0.213847 0.861604 0.5
3 1 0.259636 0.789325 0.5
158 1 0.312371 0.741024 0.5
126 1 0.392515 0.738468 0.5
164 1 0.414266 0.689675 0.5
121 1 0.51465 0.65628 0.5
343 1 0.71326 0.661831 0.5
341 1 0.733132 0.705519 0.5
93 1 0.875503 0.615263 0.5
170 1 0.95302 0.672626 0.5
182 1 0.0639242 0.659999 0.5
359 1 0.120013 0.658769 0.5
2 1 0.114912 0.712187 0.5
27 1 0.305776 0.794359 0.5
306 1 0.443456 0.754332 0.5
312 1 0.609419 0.696289 0.5
193 1 0.69117 0.750893 0.5
46 1 0.694966 0.800248 0.5
397 1 0.814349 0.704239 0.5
219 1 0.842508 0.580555 0.5
78 1 0.971917 0.628968 0.5
366 1 0.0630064 0.707119 0.5
383 1 0.129252 0.767237 0.5
364 1 0.174394 0.780251 0.5
85 1 0.263662 0.837892 0.5
214 1 0.34831 0.868338 0.5
206 1 0.328781 0.921574 0.5
392 1 0.464064 0.656968 0.5
272 1 0.507273 0.707138 0.5
394 1 0.550145 0.744997 0.5
33 1 0.601016 0.740526 0.5
376 1 0.681495 0.695807 0.5
324 1 0.769511 0.735714 0.5
156 1 0.883947 0.661544 0.5
11 1 0.921908 0.622467 0.5
330 1 0.0229319 0.637392 0.5
381 1 0.00609755 0.685645 0.5
333 1 0.140182 0.812062 0.5
259 1 0.209136 0.814497 0.5
238 1 0.194856 0.949253 0.5
176 1 0.343635 0.818443 0.5
40 1 0.351821 0.767454 0.5
291 1 0.392508 0.787221 0.5
348 1 0.462589 0.706157 0.5
351 1 0.574275 0.781957 0.5
100 1 0.859683 0.809836 0.5
395 1 0.888897 0.849017 0.5
277 1 0.862335 0.701659 0.5
400 1 0.976409 0.726907 0.5
15 1 0.956857 0.789209 0.5
39 1 0.0262019 0.737725 0.5
309 1 0.297738 0.881198 0.5
243 1 0.374402 0.909359 0.5
349 1 0.434027 0.810461 0.5
72 1 0.644552 0.775599 0.5
212 1 0.64941 0.730954 0.5
232 1 0.741738 0.776103 0.5
9 1 0.836759 0.748089 0.5
4 1 0.926728 0.749784 0.5
242 1 0.92072 0.704726 0.5
29 1 0.0890665 0.801218 0.5
73 1 0.086042 0.746898 0.5
76 1 0.168567 0.850576 0.5
184 1 0.267279 -0.000681081 0.5
185 1 0.283969 0.939376 0.5
292 1 0.385194 0.837603 0.5
315 1 0.493167 0.75539 0.5
163 1 0.613918 0.815849 0.5
32 1 0.76865 0.865843 0.5
111 1 0.788458 0.785277 0.5
235 1 0.883367 0.74545 0.5
153 1 0.829361 0.873196 0.5
190 1 0.922163 0.882758 0.5
127 1 0.906139 0.794402 0.5
192 1 0.967798 0.871964 0.5
77 1 0.0087147 0.779449 0.5
230 1 0.0971812 0.852969 0.5
265 1 0.187003 0.898716 0.5
207 1 0.238078 0.908901 0.5
393 1 0.456952 0.851111 0.5
50 1 0.483857 0.807155 0.5
223 1 0.529373 0.791704 0.5
74 1 0.748392 0.822264 0.5
89 1 0.891765 0.988971 0.5
220 1 0.935952 0.836302 0.5
266 1 0.0617596 0.883819 0.5
28 1 0.146137 0.936676 0.5
286 1 0.133268 0.881654 0.5
8 1 0.264156 0.0721463 0.5
71 1 0.322832 0.967137 0.5
186 1 0.471578 0.897689 0.5
321 1 0.565424 0.830004 0.5
150 1 0.71032 0.851894 0.5
97 1 0.719579 0.89967 0.5
107 1 0.803312 0.834446 0.5
318 1 0.815496 0.0648427 0.5
253 1 0.988434 0.825302 0.5
256 1 0.0623376 0.943941 0.5
43 1 0.10804 0.968549 0.5
63 1 0.241443 0.958002 0.5
5 1 0.419762 0.888065 0.5
60 1 0.513356 0.933553 0.5
346 1 0.51932 0.888426 0.5
380 1 0.664806 0.838352 0.5
1 1 0.632023 0.878284 0.5
288 1 0.802193 0.968629 0.5
68 1 0.911422 0.925828 0.5
237 1 0.016396 0.866468 0.5
21 1 0.0431442 0.812542 0.5
305 1 0.990711 0.953664 0.5
99 1 0.0310824 0.979746 0.5
57 1 0.0169151 0.915629 0.5
390 1 0.159778 0.982064 0.5
35 1 0.10281 0.921439 0.5
103 1 0.373143 0.954391 0.5
136 1 0.587606 0.884394 0.5
44 1 0.61198 0.923262 0.5
204 1 0.815204 0.924396 0.5
37 1 0.755013 0.969669 0.5
208 1 0.773634 0.10965 0.5
119 1 0.98251 0.00401736 0.5
267 1 0.120829 0.0122051 0.5
54 1 0.172305 0.024745 0.5
173 1 0.210514 0.996509 0.5
345 1 0.470552 0.9505 0.5
64 1 0.451927 0.998169 0.5
226 1 0.493778 0.0415159 0.5
13 1 0.550452 0.00425535 0.5
248 1 0.519235 0.840672 0.5
338 1 0.584624 0.970519 0.5
329 1 0.864912 0.919233 0.5
122 1 0.813431 0.019935 0.5
287 1 0.848714 0.97109 0.5
261 1 0.958755 0.921097 0.5
