ITEM: TIMESTEP
100000
ITEM: NUMBER OF ATOMS
400
ITEM: BOX BOUNDS pp pp pp
0.0000000000000000e+00 2.0306923302672381e+01
0.0000000000000000e+00 2.0306923302672381e+01
-5.0767308256680954e-01 5.0767308256680954e-01
ITEM: ATOMS id type xs ys zs
139 1 0.056385 0.0988051 0.5
293 1 0.0782319 0.045972 0.5
373 1 0.16018 0.0176864 0.5
160 1 0.20939 0.0239613 0.5
311 1 0.418336 0.958673 0.5
400 1 0.427468 0.0856941 0.5
355 1 0.589056 0.943629 0.5
368 1 0.640629 0.946412 0.5
83 1 0.761172 0.0390879 0.5
331 1 0.772185 0.949161 0.5
393 1 0.00735313 0.103602 0.5
94 1 0.106441 0.0928926 0.5
211 1 0.121788 0.0475832 0.5
176 1 0.255522 0.0192531 0.5
55 1 0.303647 0.025846 0.5
122 1 0.348292 0.0414972 0.5
136 1 0.374921 0.080541 0.5
207 1 0.485329 0.0022378 0.5
191 1 0.554679 0.0448515 0.5
7 1 0.604311 0.0589218 0.5
376 1 0.693045 0.00697816 0.5
201 1 0.735736 0.0886579 0.5
292 1 0.871052 0.997535 0.5
71 1 0.93106 0.0615132 0.5
265 1 0.977076 0.0555594 0.5
264 1 0.0228279 0.150357 0.5
96 1 0.232029 0.0708574 0.5
56 1 0.279615 0.0738103 0.5
281 1 0.331033 0.0919836 0.5
335 1 0.416483 0.144624 0.5
154 1 0.476522 0.0898243 0.5
41 1 0.505801 0.0497745 0.5
51 1 0.64047 0.00464916 0.5
140 1 0.739478 0.991183 0.5
180 1 0.83428 0.0326393 0.5
30 1 0.891776 0.0927261 0.5
250 1 0.918531 0.137123 0.5
183 1 0.96249 0.102627 0.5
257 1 0.0439709 0.198862 0.5
344 1 0.0720749 0.152021 0.5
210 1 0.154923 0.105628 0.5
196 1 0.185636 0.0619925 0.5
100 1 0.203074 0.11338 0.5
6 1 0.267312 0.127195 0.5
98 1 0.317757 0.140289 0.5
156 1 0.368213 0.13474 0.5
229 1 0.399849 0.189744 0.5
16 1 0.482031 0.140582 0.5
150 1 0.657747 0.0490981 0.5
309 1 0.629026 0.109883 0.5
202 1 0.792976 0.0725437 0.5
377 1 0.847671 0.0800967 0.5
126 1 0.096136 0.199029 0.5
287 1 0.123809 0.147193 0.5
182 1 0.174621 0.152974 0.5
169 1 0.199059 0.202294 0.5
214 1 0.227763 0.157103 0.5
283 1 0.341941 0.176542 0.5
382 1 0.528331 0.139197 0.5
366 1 0.584812 0.147952 0.5
58 1 0.579465 0.101632 0.5
113 1 0.70511 0.0529788 0.5
171 1 0.854972 0.130609 0.5
184 1 0.972175 0.151406 0.5
166 1 0.99158 0.193703 0.5
69 1 0.245268 0.201928 0.5
17 1 0.283775 0.17599 0.5
321 1 0.451067 0.176629 0.5
89 1 0.607387 0.201566 0.5
297 1 0.527378 0.0925504 0.5
46 1 0.641873 0.155408 0.5
28 1 0.655531 0.209421 0.5
107 1 0.69613 0.137903 0.5
1 1 0.676034 0.0921588 0.5
48 1 0.828232 0.177265 0.5
132 1 0.8821 0.177139 0.5
387 1 0.0126727 0.246699 0.5
200 1 0.0630988 0.242328 0.5
330 1 0.115576 0.24751 0.5
21 1 0.147063 0.19939 0.5
262 1 0.278801 0.250815 0.5
360 1 0.321325 0.220395 0.5
371 1 0.37138 0.229976 0.5
2 1 0.421439 0.236323 0.5
124 1 0.506419 0.184766 0.5
383 1 0.624552 0.245656 0.5
168 1 0.563948 0.233069 0.5
145 1 0.718138 0.187499 0.5
70 1 0.802489 0.121244 0.5
192 1 0.806561 0.248521 0.5
26 1 0.939393 0.187865 0.5
351 1 0.0934458 0.292436 0.5
223 1 0.164923 0.249345 0.5
117 1 0.22917 0.247133 0.5
392 1 0.293907 0.297116 0.5
198 1 0.332999 0.268272 0.5
85 1 0.392682 0.274093 0.5
20 1 0.518082 0.234127 0.5
329 1 0.557151 0.185403 0.5
111 1 0.560566 0.282585 0.5
225 1 0.777639 0.166662 0.5
365 1 0.851184 0.221119 0.5
336 1 0.966331 0.234397 0.5
346 1 0.038609 0.288307 0.5
226 1 0.247256 0.293546 0.5
27 1 0.351703 0.317146 0.5
39 1 0.470484 0.225154 0.5
35 1 0.531897 0.321462 0.5
273 1 0.611171 0.291973 0.5
204 1 0.693452 0.301591 0.5
123 1 0.774245 0.214923 0.5
251 1 0.743252 0.136434 0.5
388 1 0.838442 0.28569 0.5
64 1 0.0645581 0.334505 0.5
8 1 0.114478 0.339188 0.5
88 1 0.142778 0.294291 0.5
324 1 0.191611 0.286608 0.5
389 1 0.219315 0.335171 0.5
317 1 0.274818 0.343213 0.5
224 1 0.323399 0.358446 0.5
219 1 0.443601 0.277729 0.5
326 1 0.506661 0.365224 0.5
181 1 0.670956 0.260968 0.5
185 1 0.641516 0.331966 0.5
131 1 0.713348 0.242779 0.5
50 1 0.741419 0.317972 0.5
92 1 0.907939 0.223311 0.5
363 1 0.987373 0.284887 0.5
11 1 0.165422 0.338356 0.5
245 1 0.283118 0.398517 0.5
37 1 0.397811 0.406054 0.5
236 1 0.382412 0.361555 0.5
120 1 0.493248 0.280299 0.5
66 1 0.474919 0.400445 0.5
313 1 0.58877 0.332848 0.5
320 1 0.759736 0.266124 0.5
57 1 0.877433 0.261139 0.5
13 1 0.938868 0.275197 0.5
60 1 0.0847978 0.379482 0.5
112 1 0.196012 0.422699 0.5
337 1 0.230314 0.388539 0.5
243 1 0.346015 0.400525 0.5
370 1 0.43633 0.433197 0.5
47 1 0.420151 0.320873 0.5
151 1 0.541019 0.472901 0.5
170 1 0.514882 0.424643 0.5
256 1 0.699222 0.353237 0.5
43 1 0.747324 0.364618 0.5
134 1 0.793698 0.358465 0.5
164 1 0.8384 0.335497 0.5
173 1 0.906021 0.314113 0.5
186 1 0.00934991 0.327777 0.5
32 1 0.979194 0.374786 0.5
45 1 0.143662 0.379899 0.5
280 1 0.156319 0.453395 0.5
158 1 0.204579 0.470759 0.5
302 1 0.248846 0.429678 0.5
240 1 0.428562 0.370929 0.5
270 1 0.476894 0.328134 0.5
49 1 0.597945 0.383572 0.5
101 1 0.652195 0.380239 0.5
63 1 0.713494 0.400824 0.5
77 1 0.790206 0.308537 0.5
352 1 0.880257 0.358244 0.5
10 1 0.962175 0.329928 0.5
307 1 0.0280205 0.372363 0.5
222 1 0.111237 0.420261 0.5
238 1 0.130835 0.559 0.5
390 1 0.296624 0.445594 0.5
266 1 0.352372 0.445993 0.5
384 1 0.392521 0.478654 0.5
167 1 0.440916 0.48552 0.5
327 1 0.478576 0.456891 0.5
381 1 0.553386 0.364734 0.5
172 1 0.623439 0.428436 0.5
216 1 0.648529 0.471243 0.5
86 1 0.803963 0.425161 0.5
141 1 0.929358 0.362545 0.5
82 1 0.941671 0.410257 0.5
125 1 0.00173304 0.418027 0.5
155 1 0.0561462 0.422954 0.5
394 1 0.0985042 0.476975 0.5
350 1 0.142787 0.505574 0.5
205 1 0.192062 0.517685 0.5
282 1 0.303046 0.493327 0.5
178 1 0.459849 0.543135 0.5
303 1 0.492697 0.503442 0.5
339 1 0.565137 0.420933 0.5
106 1 0.588817 0.466756 0.5
258 1 0.672871 0.431133 0.5
359 1 0.758876 0.40942 0.5
385 1 0.837978 0.388824 0.5
31 1 0.895113 0.404887 0.5
195 1 0.0280296 0.461802 0.5
147 1 0.0862886 0.542251 0.5
323 1 0.188995 0.566571 0.5
42 1 0.254796 0.480624 0.5
199 1 0.355095 0.509342 0.5
75 1 0.656209 0.521124 0.5
5 1 0.69436 0.486948 0.5
103 1 0.728123 0.4509 0.5
220 1 0.85395 0.431072 0.5
138 1 0.866294 0.476704 0.5
304 1 0.949294 0.502063 0.5
74 1 0.915698 0.463419 0.5
318 1 0.96626 0.45288 0.5
102 1 0.0433378 0.518476 0.5
4 1 0.0573731 0.57853 0.5
333 1 0.320284 0.541959 0.5
15 1 0.404882 0.528402 0.5
353 1 0.508193 0.549115 0.5
305 1 0.55052 0.520126 0.5
252 1 0.607379 0.521218 0.5
242 1 0.699903 0.544385 0.5
356 1 0.736917 0.505465 0.5
254 1 0.82081 0.476298 0.5
231 1 0.843331 0.523424 0.5
239 1 0.890402 0.530789 0.5
206 1 0.997333 0.499467 0.5
34 1 0.0108516 0.569259 0.5
157 1 0.0154722 0.621748 0.5
260 1 0.106049 0.600102 0.5
80 1 0.367159 0.55506 0.5
116 1 0.334213 0.588137 0.5
143 1 0.422015 0.577047 0.5
367 1 0.538566 0.589048 0.5
244 1 0.578305 0.563914 0.5
38 1 0.77495 0.46532 0.5
189 1 0.818406 0.571095 0.5
40 1 0.96838 0.547192 0.5
208 1 0.971762 0.59518 0.5
279 1 0.0146343 0.676194 0.5
218 1 0.0624356 0.63032 0.5
24 1 0.107605 0.650634 0.5
105 1 0.241433 0.525714 0.5
23 1 0.286069 0.590392 0.5
397 1 0.314123 0.629959 0.5
267 1 0.625921 0.56657 0.5
203 1 0.673859 0.585237 0.5
9 1 0.784331 0.512144 0.5
133 1 0.817886 0.618429 0.5
65 1 0.870849 0.581205 0.5
212 1 0.976541 0.6489 0.5
379 1 0.0661024 0.681691 0.5
328 1 0.153888 0.600573 0.5
338 1 0.200581 0.620642 0.5
14 1 0.393687 0.615142 0.5
296 1 0.481627 0.591589 0.5
165 1 0.511755 0.632903 0.5
343 1 0.599358 0.60901 0.5
108 1 0.651764 0.634205 0.5
119 1 0.723354 0.59765 0.5
278 1 0.74636 0.550836 0.5
386 1 0.843191 0.672064 0.5
161 1 0.922214 0.586268 0.5
306 1 0.962279 0.697254 0.5
275 1 0.033303 0.720875 0.5
3 1 0.127146 0.703646 0.5
22 1 0.155044 0.662227 0.5
300 1 0.236367 0.575712 0.5
129 1 0.358662 0.654254 0.5
372 1 0.4435 0.627568 0.5
81 1 0.472611 0.674427 0.5
135 1 0.561939 0.640332 0.5
288 1 0.696851 0.649006 0.5
177 1 0.756855 0.643525 0.5
233 1 0.866864 0.630676 0.5
299 1 0.929987 0.635312 0.5
78 1 0.983121 0.741078 0.5
378 1 0.0427596 0.769522 0.5
316 1 0.0893487 0.737221 0.5
93 1 0.192099 0.697179 0.5
247 1 0.233341 0.67017 0.5
153 1 0.255354 0.626092 0.5
213 1 0.383388 0.722186 0.5
127 1 0.406148 0.671925 0.5
340 1 0.432584 0.721693 0.5
193 1 0.611266 0.661061 0.5
118 1 0.662419 0.683971 0.5
348 1 0.710486 0.695487 0.5
95 1 0.775551 0.598037 0.5
97 1 0.867333 0.713422 0.5
12 1 0.901852 0.677749 0.5
142 1 0.916923 0.729468 0.5
25 1 0.179767 0.808895 0.5
79 1 0.264974 0.713072 0.5
149 1 0.286402 0.669525 0.5
197 1 0.464309 0.764109 0.5
109 1 0.523784 0.679679 0.5
325 1 0.566666 0.693776 0.5
358 1 0.612149 0.717163 0.5
232 1 0.672099 0.732047 0.5
277 1 0.796399 0.667607 0.5
44 1 0.810543 0.715312 0.5
268 1 0.850552 0.807534 0.5
399 1 0.88527 0.769172 0.5
274 1 0.933815 0.774938 0.5
59 1 0.0861971 0.784858 0.5
249 1 0.136272 0.771079 0.5
62 1 0.172324 0.73941 0.5
269 1 0.222119 0.741311 0.5
364 1 0.331634 0.701444 0.5
354 1 0.340564 0.754207 0.5
375 1 0.488778 0.722238 0.5
361 1 0.527179 0.751104 0.5
61 1 0.757679 0.691572 0.5
84 1 0.774677 0.755153 0.5
261 1 0.910814 0.814588 0.5
175 1 0.985035 0.789722 0.5
91 1 0.966279 0.88048 0.5
73 1 0.0788368 0.831291 0.5
146 1 0.198569 0.869808 0.5
286 1 0.292524 0.755885 0.5
391 1 0.359531 0.805329 0.5
227 1 0.402688 0.764368 0.5
162 1 0.406764 0.812885 0.5
357 1 0.596884 0.802316 0.5
144 1 0.577655 0.748846 0.5
284 1 0.628871 0.766593 0.5
52 1 0.829017 0.760592 0.5
68 1 0.874377 0.848824 0.5
253 1 0.959997 0.831328 0.5
298 1 0.0101433 0.848535 0.5
312 1 0.150271 0.866412 0.5
209 1 0.224302 0.830038 0.5
248 1 0.25168 0.784755 0.5
345 1 0.374803 0.856079 0.5
29 1 0.425929 0.862922 0.5
188 1 0.649006 0.816421 0.5
395 1 0.677638 0.778677 0.5
341 1 0.722291 0.741573 0.5
289 1 0.702869 0.822404 0.5
276 1 0.743092 0.790439 0.5
174 1 0.793928 0.8009 0.5
215 1 0.918852 0.869969 0.5
285 1 0.128897 0.818401 0.5
137 1 0.0491504 0.876821 0.5
332 1 0.167209 0.935452 0.5
54 1 0.245148 0.882465 0.5
295 1 0.306966 0.800278 0.5
347 1 0.330404 0.845048 0.5
319 1 0.439619 0.910887 0.5
294 1 0.500727 0.799631 0.5
114 1 0.549951 0.797046 0.5
314 1 0.67334 0.86192 0.5
291 1 0.781129 0.885125 0.5
396 1 0.824519 0.84757 0.5
115 1 0.829146 0.906722 0.5
255 1 0.00759493 0.904157 0.5
179 1 0.101698 0.872075 0.5
290 1 0.2809 0.848592 0.5
301 1 0.295931 0.895327 0.5
241 1 0.390843 0.903486 0.5
310 1 0.456733 0.815375 0.5
235 1 0.488102 0.904997 0.5
163 1 0.509668 0.850572 0.5
398 1 0.607372 0.852726 0.5
121 1 0.757402 0.841114 0.5
380 1 0.877388 0.902899 0.5
152 1 0.922346 0.918496 0.5
374 1 0.0706277 0.920848 0.5
128 1 0.188583 0.980138 0.5
76 1 0.21089 0.916584 0.5
221 1 0.263535 0.930736 0.5
194 1 0.318731 0.936286 0.5
334 1 0.364238 0.942195 0.5
342 1 0.466255 0.956884 0.5
237 1 0.514646 0.954658 0.5
67 1 0.559377 0.849734 0.5
217 1 0.718655 0.868357 0.5
308 1 0.820133 0.957505 0.5
53 1 0.874175 0.950519 0.5
272 1 0.0152488 0.00868369 0.5
87 1 0.124532 0.916717 0.5
72 1 0.0904094 0.989008 0.5
228 1 0.134058 0.973963 0.5
349 1 0.386677 0.000191109 0.5
130 1 0.438378 0.00251437 0.5
19 1 0.54727 0.919523 0.5
369 1 0.588567 0.893839 0.5
159 1 0.634733 0.896942 0.5
18 1 0.691607 0.958292 0.5
315 1 0.730698 0.920469 0.5
234 1 0.801971 1.00043 0.5
230 1 0.926772 0.967918 0.5
190 1 0.0303089 0.95676 0.5
362 1 0.029646 0.0630348 0.5
322 1 0.23934 0.974728 0.5
33 1 0.288957 0.973245 0.5
271 1 0.336772 0.984982 0.5
263 1 0.34364 0.892645 0.5
187 1 0.404541 0.046227 0.5
36 1 0.457933 0.0452423 0.5
259 1 0.533596 0.998929 0.5
99 1 0.591004 0.010256 0.5
110 1 0.681274 0.910629 0.5
90 1 0.880902 0.043168 0.5
104 1 0.967973 0.94198 0.5
148 1 0.919475 0.0142573 0.5
246 1 0.966441 0.992478 0.5
