ITEM: TIMESTEP
100000
ITEM: NUMBER OF ATOMS
400
ITEM: BOX BOUNDS pp pp pp
0.0000000000000000e+00 2.0203050891044217e+01
0.0000000000000000e+00 2.0203050891044217e+01
-5.0507627227610541e-01 5.0507627227610541e-01
ITEM: ATOMS id type xs ys zs
160 1 0.0434762 0.0682586 0.5
286 1 0.074268 0.0353407 0.5
137 1 0.116718 0.0654409 0.5
372 1 0.190543 0.023391 0.5
88 1 0.22118 0.0665822 0.5
301 1 0.319753 0.0818543 0.5
187 1 0.383742 -0.000526067 0.5
207 1 0.437601 0.0131509 0.5
234 1 0.480448 0.979284 0.5
113 1 0.575947 0.970659 0.5
252 1 0.642852 0.988307 0.5
208 1 0.783377 0.0449933 0.5
261 1 0.822551 0.0176541 0.5
204 1 0.869298 0.031353 0.5
16 1 0.916683 0.0189247 0.5
125 1 0.269486 0.0778445 0.5
391 1 0.370507 0.0547327 0.5
310 1 0.419504 0.0569336 0.5
247 1 0.526666 0.980409 0.5
86 1 0.600197 0.0171684 0.5
56 1 0.690687 0.00120593 0.5
151 1 0.737208 0.0178266 0.5
221 1 0.781462 0.100131 0.5
112 1 0.88961 0.0759965 0.5
175 1 0.947418 0.0745325 0.5
200 1 0.0294512 0.115126 0.5
282 1 0.0834387 0.102054 0.5
108 1 0.163558 0.0640517 0.5
194 1 0.237152 0.111428 0.5
130 1 0.29364 0.120433 0.5
347 1 0.500747 0.0253089 0.5
107 1 0.55215 0.0218722 0.5
353 1 0.641439 0.0450132 0.5
91 1 0.693855 0.0503337 0.5
387 1 0.741696 0.0717597 0.5
190 1 0.821778 0.0717768 0.5
386 1 0.994909 0.0820567 0.5
71 1 0.182758 0.106436 0.5
355 1 0.208003 0.160225 0.5
222 1 0.227853 0.20574 0.5
380 1 0.260144 0.160135 0.5
102 1 0.376272 0.10188 0.5
273 1 0.476542 0.0642294 0.5
297 1 0.523089 0.0692587 0.5
399 1 0.584875 0.0608156 0.5
164 1 0.637086 0.148973 0.5
140 1 0.658608 0.0956607 0.5
23 1 0.819372 0.129 0.5
390 1 0.871756 0.123752 0.5
331 1 0.923648 0.123288 0.5
75 1 0.982778 0.130295 0.5
296 1 0.974191 0.210097 0.5
42 1 0.027736 0.216519 0.5
308 1 0.279896 0.208411 0.5
389 1 0.33197 0.216143 0.5
155 1 0.311001 0.169255 0.5
328 1 0.44954 0.147927 0.5
94 1 0.431014 0.102074 0.5
29 1 0.559921 0.10607 0.5
317 1 0.590498 0.147258 0.5
12 1 0.607755 0.105356 0.5
179 1 0.849516 0.168328 0.5
100 1 0.953504 0.167208 0.5
315 1 0.00209122 0.17278 0.5
167 1 0.138039 0.10724 0.5
123 1 0.156983 0.153251 0.5
342 1 0.347512 0.140307 0.5
363 1 0.501272 0.114861 0.5
232 1 0.493044 0.169007 0.5
373 1 0.539936 0.147525 0.5
129 1 0.697587 0.161348 0.5
10 1 0.643224 0.239862 0.5
365 1 0.710908 0.109523 0.5
46 1 0.75118 0.138438 0.5
381 1 0.899586 0.164908 0.5
395 1 0.00174904 0.254241 0.5
300 1 0.100223 0.154229 0.5
168 1 0.0528075 0.169087 0.5
245 1 0.129737 0.192613 0.5
97 1 0.244232 0.252316 0.5
199 1 0.193083 0.269419 0.5
150 1 0.291369 0.256628 0.5
171 1 0.417244 0.186311 0.5
371 1 0.458973 0.209123 0.5
202 1 0.481246 0.252545 0.5
124 1 0.522938 0.209557 0.5
98 1 0.617832 0.194955 0.5
358 1 0.791803 0.274255 0.5
141 1 0.7839 0.17821 0.5
39 1 0.919711 0.211294 0.5
233 1 0.0784751 0.212801 0.5
255 1 0.116086 0.245603 0.5
67 1 0.148187 0.277684 0.5
327 1 0.341183 0.262817 0.5
158 1 0.399795 0.140941 0.5
185 1 0.428255 0.247756 0.5
36 1 0.567916 0.198592 0.5
375 1 0.667084 0.196941 0.5
213 1 0.737502 0.189245 0.5
34 1 0.869479 0.213626 0.5
206 1 0.948969 0.249428 0.5
101 1 0.975722 0.300054 0.5
121 1 0.0545377 0.256926 0.5
195 1 0.163516 0.232097 0.5
382 1 0.24785 0.300141 0.5
359 1 0.365717 0.183678 0.5
376 1 0.378974 0.232339 0.5
145 1 0.519621 0.292195 0.5
70 1 0.543341 0.251163 0.5
62 1 0.591638 0.243621 0.5
186 1 0.719208 0.232554 0.5
133 1 0.81901 0.216997 0.5
74 1 0.76844 0.225824 0.5
201 1 0.897822 0.256489 0.5
72 1 0.00216027 0.342365 0.5
143 1 0.109439 0.368402 0.5
227 1 0.0927279 0.290375 0.5
18 1 0.26617 0.344558 0.5
272 1 0.346108 0.311936 0.5
82 1 0.439539 0.295445 0.5
85 1 0.478682 0.322745 0.5
136 1 0.566059 0.302071 0.5
366 1 0.684269 0.275925 0.5
90 1 0.737429 0.279409 0.5
323 1 0.812566 0.317684 0.5
169 1 0.844289 0.269752 0.5
279 1 0.925152 0.298047 0.5
193 1 0.0342849 0.300454 0.5
316 1 0.0650783 0.380378 0.5
214 1 0.193182 0.316612 0.5
13 1 0.228501 0.376519 0.5
139 1 0.297841 0.305965 0.5
321 1 0.387913 0.281103 0.5
96 1 0.435299 0.351434 0.5
166 1 0.532683 0.339207 0.5
215 1 0.630376 0.374166 0.5
396 1 0.611211 0.287098 0.5
154 1 0.643276 0.422649 0.5
122 1 0.765255 0.326221 0.5
45 1 0.838752 0.359091 0.5
357 1 0.877463 0.306552 0.5
57 1 0.952741 0.341764 0.5
284 1 0.956275 0.391546 0.5
81 1 0.0738149 0.335402 0.5
269 1 0.137593 0.324363 0.5
93 1 0.18156 0.365745 0.5
346 1 0.275103 0.396981 0.5
230 1 0.392751 0.331986 0.5
218 1 0.502448 0.375649 0.5
126 1 0.590223 0.350287 0.5
48 1 0.593963 0.410018 0.5
253 1 0.657995 0.331665 0.5
104 1 0.6774 0.377986 0.5
176 1 0.906871 0.350176 0.5
135 1 0.911153 0.406798 0.5
364 1 0.938999 0.44534 0.5
304 1 0.00822723 0.389349 0.5
224 1 0.14474 0.400809 0.5
24 1 0.193824 0.414129 0.5
58 1 0.329842 0.405898 0.5
254 1 0.314898 0.358527 0.5
76 1 0.407272 0.391947 0.5
292 1 0.552766 0.38444 0.5
33 1 0.782153 0.452324 0.5
165 1 0.710452 0.486526 0.5
128 1 0.709453 0.322049 0.5
258 1 0.89145 0.454801 0.5
47 1 0.0272875 0.473658 0.5
132 1 0.0450135 0.424774 0.5
400 1 0.0953528 0.423896 0.5
189 1 0.23705 0.433805 0.5
268 1 0.330608 0.461462 0.5
339 1 0.361742 0.367483 0.5
293 1 0.455384 0.40069 0.5
312 1 0.507127 0.42375 0.5
209 1 0.607659 0.469579 0.5
61 1 0.735261 0.447004 0.5
228 1 0.777397 0.375609 0.5
146 1 0.864651 0.412182 0.5
53 1 0.955076 0.547897 0.5
217 1 0.997463 0.437544 0.5
377 1 0.0849618 0.476126 0.5
64 1 0.138997 0.448802 0.5
4 1 0.195831 0.462067 0.5
216 1 0.286014 0.444333 0.5
383 1 0.426778 0.441122 0.5
384 1 0.57778 0.52677 0.5
7 1 0.553488 0.435809 0.5
22 1 0.630224 0.524098 0.5
66 1 0.728745 0.374837 0.5
55 1 0.976516 0.490757 0.5
306 1 0.886942 0.592134 0.5
285 1 0.0110854 0.545004 0.5
77 1 0.13988 0.498118 0.5
299 1 0.225704 0.538083 0.5
173 1 0.269331 0.519781 0.5
172 1 0.236942 0.484427 0.5
37 1 0.376856 0.430798 0.5
163 1 0.435578 0.491007 0.5
170 1 0.462643 0.53514 0.5
354 1 0.476282 0.461885 0.5
275 1 0.54323 0.557492 0.5
153 1 0.688977 0.442872 0.5
59 1 0.801669 0.498227 0.5
188 1 0.814303 0.410467 0.5
322 1 0.937246 0.594008 0.5
157 1 0.0104236 0.593091 0.5
307 1 0.0573932 0.516403 0.5
352 1 0.0643735 0.565449 0.5
290 1 0.101619 0.534606 0.5
220 1 0.183627 0.514948 0.5
348 1 0.268459 0.571111 0.5
84 1 0.384517 0.478113 0.5
266 1 0.524316 0.47665 0.5
78 1 0.506876 0.519639 0.5
119 1 0.639757 0.573057 0.5
40 1 0.659916 0.486882 0.5
115 1 0.835172 0.4524 0.5
238 1 0.926592 0.491189 0.5
182 1 0.0699776 0.623 0.5
394 1 0.140197 0.629047 0.5
111 1 0.114009 0.584771 0.5
28 1 0.347701 0.509257 0.5
236 1 0.4181 0.573238 0.5
35 1 0.45805 0.603527 0.5
95 1 0.470499 0.651092 0.5
30 1 0.557293 0.612531 0.5
15 1 0.680545 0.532887 0.5
44 1 0.757294 0.494303 0.5
41 1 0.779438 0.607596 0.5
362 1 0.904179 0.53531 0.5
1 1 0.837321 0.593197 0.5
330 1 0.968701 0.626794 0.5
244 1 0.174559 0.591862 0.5
105 1 0.153534 0.550514 0.5
294 1 0.312844 0.549819 0.5
180 1 0.367545 0.561003 0.5
161 1 0.400232 0.523538 0.5
43 1 0.388459 0.612359 0.5
318 1 0.494976 0.57278 0.5
89 1 0.592383 0.664405 0.5
26 1 0.591568 0.579857 0.5
8 1 0.727431 0.531039 0.5
271 1 0.853248 0.497525 0.5
345 1 0.857769 0.548638 0.5
320 1 0.0273218 0.652163 0.5
178 1 0.0841614 0.673156 0.5
249 1 0.223832 0.58936 0.5
142 1 0.285663 0.614864 0.5
335 1 0.332084 0.602253 0.5
87 1 0.282866 0.711592 0.5
69 1 0.411359 0.655099 0.5
334 1 0.509707 0.615237 0.5
340 1 0.614806 0.707978 0.5
83 1 0.70285 0.575168 0.5
20 1 0.807309 0.554704 0.5
118 1 0.758232 0.565364 0.5
51 1 0.809113 0.647645 0.5
196 1 0.910515 0.641985 0.5
281 1 0.93955 0.684389 0.5
338 1 0.0407792 0.704824 0.5
298 1 0.136415 0.676039 0.5
52 1 0.197692 0.633041 0.5
291 1 0.30493 0.661088 0.5
103 1 0.351392 0.645663 0.5
303 1 0.373696 0.689922 0.5
356 1 0.540166 0.661737 0.5
177 1 0.623229 0.617022 0.5
191 1 0.724711 0.616905 0.5
149 1 0.697839 0.659086 0.5
60 1 0.841227 0.68874 0.5
368 1 0.991124 0.693995 0.5
109 1 0.10764 0.717043 0.5
277 1 0.251875 0.649787 0.5
319 1 0.298902 0.763834 0.5
344 1 0.333595 0.719066 0.5
17 1 0.449187 0.751538 0.5
203 1 0.45843 0.699852 0.5
210 1 0.651437 0.662529 0.5
21 1 0.66189 0.711169 0.5
80 1 0.675295 0.61501 0.5
117 1 0.811787 0.740297 0.5
267 1 0.86365 0.732107 0.5
237 1 0.881263 0.777888 0.5
25 1 0.863325 0.640792 0.5
106 1 0.964273 0.732957 0.5
229 1 0.0659546 0.754583 0.5
351 1 0.154788 0.722345 0.5
156 1 0.183167 0.678079 0.5
369 1 0.252237 0.745381 0.5
262 1 0.398862 0.733012 0.5
276 1 0.564816 0.703045 0.5
14 1 0.545258 0.746902 0.5
116 1 0.726513 0.695324 0.5
250 1 0.755135 0.654815 0.5
205 1 0.830998 0.781066 0.5
219 1 0.889059 0.682999 0.5
79 1 0.0101787 0.749763 0.5
6 1 0.035448 0.794278 0.5
159 1 0.115927 0.763092 0.5
243 1 0.166835 0.783396 0.5
370 1 0.232761 0.695414 0.5
378 1 0.328858 0.807352 0.5
260 1 0.353737 0.767594 0.5
289 1 0.415647 0.783784 0.5
181 1 0.513176 0.709196 0.5
278 1 0.591182 0.760041 0.5
92 1 0.700755 0.738595 0.5
263 1 0.785926 0.692086 0.5
73 1 0.928929 0.784944 0.5
309 1 0.912267 0.731419 0.5
5 1 0.131107 0.823828 0.5
31 1 0.198681 0.740511 0.5
2 1 0.262868 0.804344 0.5
27 1 0.382972 0.825617 0.5
350 1 0.499829 0.765333 0.5
295 1 0.57689 0.806153 0.5
68 1 0.63698 0.756164 0.5
326 1 0.756587 0.734179 0.5
379 1 0.785442 0.798891 0.5
361 1 0.852392 0.826794 0.5
329 1 0.998547 0.83513 0.5
360 1 0.0511842 0.847011 0.5
9 1 0.0867216 0.807722 0.5
144 1 0.0997612 0.862318 0.5
226 1 0.178842 0.83058 0.5
225 1 0.201773 0.885428 0.5
325 1 0.214624 0.785983 0.5
349 1 0.290144 0.853951 0.5
288 1 0.339342 0.857579 0.5
211 1 0.461357 0.797123 0.5
332 1 0.530635 0.809437 0.5
192 1 0.629651 0.80195 0.5
305 1 0.687623 0.787874 0.5
242 1 0.808035 0.849393 0.5
393 1 0.901864 0.834812 0.5
313 1 0.981173 0.789382 0.5
54 1 0.0119197 0.893148 0.5
392 1 0.0374614 0.933401 0.5
127 1 0.0849839 0.942965 0.5
120 1 0.155368 0.875023 0.5
152 1 0.234617 0.85024 0.5
397 1 0.311194 0.897796 0.5
283 1 0.392953 0.871363 0.5
99 1 0.429502 0.833777 0.5
3 1 0.492955 0.839436 0.5
231 1 0.608737 0.849874 0.5
11 1 0.737141 0.783127 0.5
302 1 0.753886 0.836975 0.5
65 1 0.907208 0.891656 0.5
280 1 0.94922 0.831597 0.5
324 1 0.0693518 0.896754 0.5
314 1 0.12172 0.908524 0.5
270 1 0.231093 0.930998 0.5
134 1 0.261264 0.892727 0.5
63 1 0.442371 0.878647 0.5
256 1 0.53712 0.877255 0.5
241 1 0.656489 0.851367 0.5
336 1 0.702194 0.834773 0.5
265 1 0.771023 0.884791 0.5
240 1 0.826624 0.914622 0.5
264 1 0.980061 0.926568 0.5
197 1 0.104061 0.993687 0.5
223 1 0.185159 0.931145 0.5
274 1 0.290565 0.984382 0.5
287 1 0.279001 0.936215 0.5
374 1 0.362417 0.9069 0.5
49 1 0.412365 0.916826 0.5
212 1 0.487643 0.887141 0.5
259 1 0.634526 0.893318 0.5
148 1 0.873192 0.925866 0.5
138 1 0.966802 0.878933 0.5
239 1 0.953787 0.982612 0.5
257 1 9.53876e-05 0.967124 0.5
131 1 0.159868 0.974829 0.5
174 1 0.207515 0.972407 0.5
32 1 0.296528 0.0362183 0.5
162 1 0.325173 0.95065 0.5
184 1 0.376657 0.951429 0.5
19 1 0.58273 0.889287 0.5
246 1 0.609533 0.933314 0.5
38 1 0.684056 0.892661 0.5
388 1 0.72766 0.905371 0.5
248 1 0.781203 0.945446 0.5
398 1 0.850979 0.874793 0.5
341 1 0.93081 0.940966 0.5
251 1 0.0229667 0.0227881 0.5
235 1 0.0573839 0.987091 0.5
183 1 0.140054 0.0225103 0.5
147 1 0.240064 0.0119721 0.5
333 1 0.334306 0.00898331 0.5
50 1 0.427814 0.966037 0.5
385 1 0.468384 0.932576 0.5
311 1 0.533266 0.927602 0.5
367 1 0.664191 0.943895 0.5
114 1 0.721055 0.953602 0.5
337 1 0.778965 0.992393 0.5
343 1 0.828068 0.970375 0.5
198 1 0.89577 0.974031 0.5
110 1 0.975874 0.0284057 0.5
