ITEM: TIMESTEP
100000
ITEM: NUMBER OF ATOMS
400
ITEM: BOX BOUNDS pp pp pp
0.0000000000000000e+00 2.0628424925175871e+01
0.0000000000000000e+00 2.0628424925175871e+01
-5.1571062312939675e-01 5.1571062312939675e-01
ITEM: ATOMS id type xs ys zs
24 1 0.00406742 0.989366 0.5
161 1 0.0457751 0.971773 0.5
75 1 0.0440462 0.915408 0.5
261 1 0.168126 0.0305625 0.5
138 1 0.349779 0.967471 0.5
184 1 0.36745 0.0300853 0.5
283 1 0.445734 0.0580672 0.5
23 1 0.463926 0.100778 0.5
100 1 0.568998 0.0285889 0.5
397 1 0.690834 0.971731 0.5
174 1 0.738776 0.985989 0.5
290 1 0.807949 0.0515745 0.5
340 1 0.076138 0.0582419 0.5
166 1 0.0404069 0.0236333 0.5
332 1 0.0845324 0.00493874 0.5
345 1 0.322655 0.0060313 0.5
178 1 0.40551 0.0809617 0.5
111 1 0.415157 0.132427 0.5
311 1 0.457813 0.160799 0.5
219 1 0.560385 0.0911444 0.5
124 1 0.607857 0.0637885 0.5
325 1 0.662113 0.0447794 0.5
70 1 0.699757 0.0164503 0.5
191 1 0.687194 0.924694 0.5
72 1 0.977419 0.034624 0.5
73 1 0.935401 0.005889 0.5
84 1 0.0794197 0.127621 0.5
28 1 0.112058 0.0945842 0.5
156 1 0.1205 0.0464514 0.5
234 1 0.365815 0.100935 0.5
140 1 0.363061 0.147027 0.5
353 1 0.507481 0.126134 0.5
163 1 0.640338 0.150874 0.5
183 1 0.653386 0.0978138 0.5
351 1 0.757286 0.124794 0.5
320 1 0.765483 0.0781858 0.5
314 1 0.806547 0.100212 0.5
227 1 0.0210397 0.0661239 0.5
359 1 0.0305107 0.117317 0.5
272 1 0.0327793 0.168938 0.5
142 1 0.174418 0.0773324 0.5
37 1 0.261842 0.0401914 0.5
324 1 0.410406 0.178126 0.5
260 1 0.602499 0.11334 0.5
74 1 0.69375 0.123072 0.5
395 1 0.716281 0.0643275 0.5
66 1 0.87313 0.103447 0.5
11 1 0.91337 0.0488368 0.5
229 1 0.983023 0.0972982 0.5
51 1 0.992512 0.144928 0.5
362 1 0.211426 0.121203 0.5
273 1 0.232816 0.0787085 0.5
216 1 0.213607 0.0154204 0.5
146 1 0.329324 0.0671615 0.5
41 1 0.276014 0.178294 0.5
20 1 0.317064 0.119722 0.5
13 1 0.467309 0.268754 0.5
119 1 0.410471 0.230877 0.5
86 1 0.684233 0.175521 0.5
392 1 0.751356 0.178099 0.5
276 1 0.792225 0.206626 0.5
282 1 0.889295 0.149458 0.5
128 1 0.878571 0.204387 0.5
367 1 0.930968 0.102629 0.5
92 1 0.173984 0.176234 0.5
34 1 0.284352 0.0836388 0.5
150 1 0.510588 0.282316 0.5
43 1 0.50002 0.180276 0.5
323 1 0.555734 0.140958 0.5
322 1 0.721255 0.214275 0.5
281 1 0.784734 0.25544 0.5
383 1 0.796087 0.14724 0.5
67 1 0.840391 0.165073 0.5
116 1 0.984992 0.193337 0.5
358 1 0.111932 0.173413 0.5
85 1 0.144744 0.21525 0.5
167 1 0.26005 0.126221 0.5
214 1 0.271277 0.333718 0.5
204 1 0.325673 0.226674 0.5
368 1 0.417945 0.282152 0.5
399 1 0.371808 0.204994 0.5
169 1 0.463938 0.209136 0.5
56 1 0.549224 0.205678 0.5
393 1 0.628522 0.207847 0.5
212 1 0.735669 0.259844 0.5
391 1 0.828846 0.281033 0.5
215 1 0.831455 0.232057 0.5
382 1 0.925328 0.197351 0.5
400 1 0.22036 0.227167 0.5
288 1 0.27675 0.22592 0.5
243 1 0.226554 0.171348 0.5
300 1 0.365638 0.256271 0.5
104 1 0.506189 0.230004 0.5
105 1 0.592353 0.171277 0.5
192 1 0.675039 0.224291 0.5
60 1 0.759462 0.30149 0.5
158 1 0.808439 0.324923 0.5
89 1 0.958346 0.232082 0.5
338 1 0.909617 0.243665 0.5
99 1 0.0276238 0.216083 0.5
246 1 0.164177 0.131788 0.5
201 1 0.131361 0.316696 0.5
244 1 0.249683 0.275449 0.5
197 1 0.316199 0.315727 0.5
5 1 0.486845 0.325102 0.5
96 1 0.547479 0.25296 0.5
296 1 0.63784 0.254702 0.5
315 1 0.6851 0.27177 0.5
371 1 0.713349 0.325746 0.5
210 1 0.751892 0.352647 0.5
222 1 0.8299 0.371368 0.5
87 1 0.0293563 0.297521 0.5
109 1 0.935905 0.151555 0.5
303 1 0.0995838 0.232409 0.5
388 1 0.178286 0.248879 0.5
53 1 0.169431 0.348734 0.5
327 1 0.323159 0.174249 0.5
366 1 0.482615 0.387625 0.5
152 1 0.40256 0.333834 0.5
356 1 0.522328 0.361577 0.5
83 1 0.590447 0.237544 0.5
81 1 0.698132 0.371748 0.5
16 1 0.747805 0.401423 0.5
42 1 0.129864 0.268427 0.5
360 1 0.0713328 0.196712 0.5
258 1 0.200973 0.392887 0.5
7 1 0.138265 0.385877 0.5
292 1 0.202627 0.301232 0.5
236 1 0.304672 0.271068 0.5
45 1 0.352457 0.350685 0.5
59 1 0.479767 0.434039 0.5
378 1 0.603044 0.28675 0.5
195 1 0.648159 0.301164 0.5
354 1 0.766121 0.447441 0.5
125 1 0.797123 0.405531 0.5
287 1 0.980405 0.301993 0.5
173 1 0.0513654 0.255934 0.5
364 1 0.00297864 0.259765 0.5
38 1 0.123215 0.433649 0.5
207 1 0.227848 0.438822 0.5
19 1 0.304402 0.367264 0.5
275 1 0.363916 0.304632 0.5
50 1 0.335868 0.451187 0.5
148 1 0.446452 0.348724 0.5
329 1 0.528566 0.409872 0.5
64 1 0.675949 0.41392 0.5
57 1 0.600117 0.487493 0.5
187 1 0.718958 0.450191 0.5
76 1 0.995554 0.355638 0.5
285 1 0.0372244 0.430688 0.5
129 1 0.0848434 0.293578 0.5
389 1 0.0799092 0.409999 0.5
352 1 0.183731 0.447732 0.5
98 1 0.217807 0.346656 0.5
208 1 0.392396 0.379241 0.5
114 1 0.385167 0.429595 0.5
22 1 0.566239 0.351884 0.5
121 1 0.56004 0.302029 0.5
106 1 0.656031 0.349248 0.5
181 1 0.628612 0.390333 0.5
224 1 0.702333 0.493912 0.5
248 1 0.0560881 0.339661 0.5
159 1 0.983325 0.401471 0.5
48 1 0.101477 0.350201 0.5
307 1 0.00883321 0.48564 0.5
235 1 0.10574 0.483486 0.5
153 1 0.118217 0.529775 0.5
31 1 0.169878 0.49204 0.5
263 1 0.249453 0.38951 0.5
115 1 0.343189 0.394387 0.5
9 1 0.283382 0.422804 0.5
233 1 0.433568 0.406464 0.5
274 1 0.609938 0.333426 0.5
157 1 0.549243 0.549311 0.5
188 1 0.659878 0.458311 0.5
179 1 0.926074 0.288754 0.5
108 1 0.922479 0.336724 0.5
27 1 0.0313398 0.385753 0.5
175 1 0.0184387 0.54834 0.5
17 1 0.0603803 0.472909 0.5
79 1 0.168854 0.558897 0.5
225 1 0.224993 0.494603 0.5
316 1 0.308766 0.554589 0.5
193 1 0.375182 0.477806 0.5
299 1 0.545365 0.49824 0.5
304 1 0.579644 0.395236 0.5
384 1 0.660676 0.519062 0.5
32 1 0.852847 0.41203 0.5
82 1 0.875956 0.281974 0.5
335 1 0.881881 0.369375 0.5
154 1 0.856919 0.32562 0.5
46 1 0.938454 0.383462 0.5
168 1 0.978639 0.449178 0.5
341 1 0.213739 0.541544 0.5
278 1 0.27322 0.468541 0.5
271 1 0.365472 0.528558 0.5
186 1 0.313231 0.496232 0.5
162 1 0.411596 0.562472 0.5
385 1 0.409856 0.511755 0.5
94 1 0.521883 0.458017 0.5
230 1 0.612603 0.433216 0.5
137 1 0.751613 0.491311 0.5
326 1 0.79018 0.524689 0.5
54 1 0.81035 0.47788 0.5
33 1 0.853103 0.458519 0.5
93 1 0.932426 0.527762 0.5
245 1 0.980764 0.522709 0.5
177 1 0.118097 0.587202 0.5
349 1 0.271699 0.524721 0.5
336 1 0.305014 0.614139 0.5
135 1 0.451513 0.541265 0.5
149 1 0.614733 0.534539 0.5
312 1 0.665773 0.568765 0.5
396 1 0.766475 0.566459 0.5
308 1 0.765259 0.612632 0.5
40 1 0.899808 0.422933 0.5
113 1 0.943666 0.478954 0.5
240 1 0.910435 0.577537 0.5
228 1 0.0734031 0.519782 0.5
370 1 0.207466 0.598254 0.5
63 1 0.252532 0.575285 0.5
373 1 0.418848 0.464354 0.5
241 1 0.350737 0.576401 0.5
318 1 0.45863 0.488929 0.5
133 1 0.354874 0.622218 0.5
394 1 0.45628 0.588404 0.5
313 1 0.564643 0.445232 0.5
280 1 0.50027 0.560695 0.5
123 1 0.666772 0.635708 0.5
141 1 0.706557 0.540672 0.5
80 1 0.848712 0.50458 0.5
202 1 0.896856 0.483777 0.5
95 1 0.957996 0.572971 0.5
122 1 0.250383 0.621484 0.5
344 1 0.262373 0.67896 0.5
127 1 0.32441 0.669679 0.5
35 1 0.402339 0.609811 0.5
264 1 0.369057 0.693364 0.5
198 1 0.499951 0.512031 0.5
144 1 0.592583 0.574946 0.5
30 1 0.716737 0.647387 0.5
286 1 0.765479 0.658418 0.5
297 1 0.822848 0.562165 0.5
302 1 0.876187 0.543137 0.5
132 1 0.909323 0.625804 0.5
379 1 0.956293 0.624928 0.5
337 1 0.0650137 0.579508 0.5
262 1 0.160743 0.606587 0.5
165 1 0.220743 0.744791 0.5
294 1 0.447556 0.636543 0.5
237 1 0.540441 0.595502 0.5
357 1 0.629704 0.604468 0.5
334 1 0.710556 0.587667 0.5
62 1 0.824381 0.608826 0.5
68 1 0.0938951 0.631154 0.5
342 1 0.138119 0.653961 0.5
249 1 0.204118 0.644857 0.5
387 1 0.238768 0.831236 0.5
305 1 0.266893 0.731287 0.5
331 1 0.220827 0.700949 0.5
61 1 0.317061 0.717899 0.5
199 1 0.398438 0.656088 0.5
306 1 0.439471 0.68428 0.5
118 1 0.493221 0.61787 0.5
147 1 0.582975 0.633092 0.5
88 1 0.671116 0.682319 0.5
239 1 0.623731 0.656773 0.5
1 1 0.869935 0.60085 0.5
120 1 0.860863 0.651328 0.5
375 1 0.884787 0.742129 0.5
190 1 -8.24126e-05 0.593662 0.5
203 1 0.0447699 0.627085 0.5
131 1 0.278754 0.858487 0.5
253 1 0.200702 0.806312 0.5
380 1 0.250228 0.784177 0.5
348 1 0.433182 0.731905 0.5
355 1 0.488895 0.665759 0.5
90 1 0.635468 0.713123 0.5
3 1 0.792135 0.703145 0.5
78 1 0.811395 0.657399 0.5
170 1 0.847415 0.696712 0.5
77 1 0.958996 0.670823 0.5
151 1 0.173167 0.6812 0.5
350 1 0.168254 0.729355 0.5
377 1 0.29486 0.76844 0.5
270 1 0.465096 0.766242 0.5
97 1 0.470249 0.822577 0.5
182 1 0.585355 0.702764 0.5
172 1 0.536052 0.645332 0.5
134 1 0.727304 0.690551 0.5
44 1 0.821247 0.737031 0.5
369 1 0.883613 0.910293 0.5
376 1 0.907142 0.819327 0.5
289 1 0.984904 0.719456 0.5
317 1 1.00044 0.640747 0.5
254 1 0.114306 0.755705 0.5
143 1 0.122012 0.706665 0.5
200 1 0.25892 0.938289 0.5
69 1 0.30985 0.819589 0.5
21 1 0.360674 0.835482 0.5
333 1 0.384176 0.7395 0.5
390 1 0.516974 0.741447 0.5
160 1 0.478253 0.713369 0.5
110 1 0.681238 0.728627 0.5
310 1 0.697424 0.77428 0.5
268 1 0.778948 0.767324 0.5
223 1 0.922212 0.776506 0.5
291 1 0.896941 0.687967 0.5
12 1 0.971343 0.76789 0.5
361 1 0.026227 0.696208 0.5
180 1 0.0678279 0.73799 0.5
363 1 0.0757347 0.680109 0.5
55 1 0.15699 0.776521 0.5
242 1 0.325135 0.864482 0.5
36 1 0.347721 0.785882 0.5
139 1 0.412863 0.782601 0.5
206 1 0.539051 0.692781 0.5
18 1 0.65046 0.764475 0.5
218 1 0.731441 0.744312 0.5
15 1 0.873475 0.786272 0.5
10 1 0.933706 0.867128 0.5
52 1 0.886125 0.86429 0.5
8 1 0.0613394 0.791788 0.5
374 1 0.0196938 0.765482 0.5
295 1 0.297629 0.904435 0.5
217 1 0.418703 0.833824 0.5
194 1 0.497689 0.876281 0.5
252 1 0.624825 0.805953 0.5
102 1 0.684934 0.824373 0.5
25 1 0.786343 0.825641 0.5
130 1 0.845201 0.834751 0.5
277 1 0.931341 0.722955 0.5
381 1 0.16327 0.83381 0.5
145 1 0.202237 0.862053 0.5
196 1 0.239885 0.891297 0.5
14 1 0.216279 0.963334 0.5
136 1 0.306802 0.961818 0.5
339 1 0.386109 0.876457 0.5
328 1 0.448915 0.869012 0.5
298 1 0.511513 0.794331 0.5
226 1 0.60171 0.764876 0.5
185 1 0.579443 0.818686 0.5
250 1 0.686959 0.874636 0.5
176 1 0.788062 0.896116 0.5
221 1 0.81944 0.792398 0.5
284 1 0.812493 0.939882 0.5
269 1 0.959006 0.813334 0.5
279 1 0.0147948 0.812992 0.5
309 1 0.109738 0.810712 0.5
103 1 0.0820736 0.887015 0.5
29 1 0.120709 0.856782 0.5
372 1 0.171022 0.951539 0.5
117 1 0.405371 0.924437 0.5
247 1 0.535397 0.843242 0.5
39 1 0.638509 0.852134 0.5
330 1 0.839316 0.8822 0.5
107 1 0.758185 0.943059 0.5
49 1 0.90713 0.966734 0.5
259 1 0.854915 0.958961 0.5
256 1 0.0709779 0.842609 0.5
346 1 0.163684 0.891217 0.5
4 1 0.20247 0.91741 0.5
101 1 0.341835 0.920698 0.5
71 1 0.454601 0.964397 0.5
26 1 0.456955 0.919447 0.5
343 1 0.586257 0.864934 0.5
319 1 0.553507 0.771039 0.5
91 1 0.559278 0.936644 0.5
58 1 0.64888 0.895088 0.5
255 1 0.740482 0.843432 0.5
231 1 0.785302 0.983461 0.5
155 1 0.982028 0.854093 0.5
251 1 0.930807 0.926729 0.5
266 1 0.0288823 0.866102 0.5
6 1 0.0846116 0.940495 0.5
386 1 0.133504 0.992483 0.5
209 1 0.263784 0.986794 0.5
321 1 0.403925 0.9724 0.5
267 1 0.505995 0.924514 0.5
112 1 0.544806 0.890712 0.5
257 1 0.502146 0.97752 0.5
171 1 0.522573 0.0235976 0.5
211 1 0.551868 0.983338 0.5
232 1 0.603649 0.914536 0.5
189 1 0.73918 0.793556 0.5
347 1 0.828426 0.00665915 0.5
238 1 0.957976 0.96573 0.5
398 1 0.970205 0.898427 0.5
213 1 0.125528 0.922618 0.5
2 1 0.417586 0.0208835 0.5
220 1 0.462873 0.0124293 0.5
265 1 0.494503 0.063362 0.5
47 1 0.631091 0.00160018 0.5
293 1 0.59711 0.96348 0.5
365 1 0.64371 0.953575 0.5
301 1 0.740764 0.892494 0.5
164 1 0.749214 0.0312176 0.5
126 1 0.858576 0.0471911 0.5
205 1 0.878304 0.00427377 0.5
65 1 0.00600449 0.943065 0.5
