ITEM: TIMESTEP
100000
ITEM: NUMBER OF ATOMS
400
ITEM: BOX BOUNDS pp pp pp
0.0000000000000000e+00 2.0100756305184241e+01
0.0000000000000000e+00 2.0100756305184241e+01
-5.0251890762960605e-01 5.0251890762960605e-01
ITEM: ATOMS id type xs ys zs
360 1 0.014628 0.0344332 0.5
259 1 0.114932 0.0224584 0.5
285 1 0.170366 0.0279893 0.5
124 1 0.225661 0.0320015 0.5
328 1 0.308329 0.010941 0.5
53 1 0.357619 0.011297 0.5
356 1 0.430325 0.0505107 0.5
157 1 0.52869 0.0175671 0.5
105 1 0.577913 0.0267427 0.5
33 1 0.722006 0.0203632 0.5
239 1 0.771755 0.0236833 0.5
386 1 0.821743 0.0241827 0.5
149 1 0.852066 0.984298 0.5
287 1 0.918211 0.99612 0.5
333 1 0.968679 0.00997309 0.5
371 1 0.0815027 0.063639 0.5
281 1 0.138317 0.0659524 0.5
306 1 0.27471 0.0474126 0.5
393 1 0.321078 0.0579223 0.5
116 1 0.411259 0.00482203 0.5
183 1 0.489787 0.0648918 0.5
355 1 0.548657 0.971015 0.5
150 1 0.600613 0.0840013 0.5
366 1 0.634241 0.044859 0.5
272 1 0.689307 0.0587392 0.5
194 1 0.738291 0.0657244 0.5
7 1 0.79003 0.0680271 0.5
129 1 0.874293 0.0333709 0.5
326 1 0.927646 0.046903 0.5
133 1 0.0457415 0.108638 0.5
381 1 0.0969655 0.110555 0.5
336 1 0.187308 0.0756486 0.5
321 1 0.238914 0.0795032 0.5
73 1 0.298304 0.0995767 0.5
98 1 0.38236 0.050944 0.5
78 1 0.413274 0.0969053 0.5
250 1 0.464134 0.110701 0.5
14 1 0.549228 0.0706741 0.5
304 1 0.565649 0.117502 0.5
29 1 0.64936 0.0915371 0.5
378 1 0.844161 0.0682323 0.5
298 1 0.890003 0.0799698 0.5
81 1 0.983307 0.0705139 0.5
38 1 0.153004 0.113696 0.5
63 1 0.203114 0.12273 0.5
230 1 0.255551 0.126059 0.5
361 1 0.349666 0.112632 0.5
196 1 0.388896 0.140604 0.5
242 1 0.514304 0.10521 0.5
77 1 0.618695 0.139806 0.5
35 1 0.701889 0.107981 0.5
132 1 0.757234 0.108785 0.5
89 1 0.806528 0.114417 0.5
215 1 0.85425 0.11696 0.5
377 1 0.940433 0.0933224 0.5
302 1 0.992127 0.12264 0.5
332 1 0.0257931 0.15866 0.5
25 1 0.0709128 0.169074 0.5
175 1 0.119161 0.160647 0.5
135 1 0.302119 0.146532 0.5
49 1 0.34873 0.167397 0.5
340 1 0.440738 0.151903 0.5
270 1 0.488334 0.153395 0.5
154 1 0.53938 0.162958 0.5
252 1 0.585992 0.177915 0.5
1 1 0.637065 0.182845 0.5
241 1 0.667638 0.140853 0.5
297 1 0.784647 0.166348 0.5
228 1 0.899466 0.128813 0.5
145 1 0.964123 0.162464 0.5
238 1 0.996296 0.199991 0.5
205 1 0.0361411 0.229139 0.5
353 1 0.174577 0.165047 0.5
152 1 0.223421 0.164734 0.5
188 1 0.315436 0.204956 0.5
15 1 0.398185 0.189119 0.5
394 1 0.555024 0.212941 0.5
36 1 0.652316 0.231779 0.5
357 1 0.717692 0.151959 0.5
253 1 0.836474 0.162899 0.5
385 1 0.871102 0.196393 0.5
18 1 0.916144 0.176349 0.5
301 1 0.949069 0.221046 0.5
70 1 0.0437919 0.284292 0.5
155 1 0.0836057 0.25725 0.5
232 1 0.0990725 0.21201 0.5
273 1 0.197279 0.209406 0.5
122 1 0.361333 0.219094 0.5
166 1 0.448828 0.19911 0.5
400 1 0.499863 0.207885 0.5
315 1 0.600975 0.227237 0.5
338 1 0.74202 0.195957 0.5
179 1 0.795981 0.211783 0.5
191 1 0.840008 0.235081 0.5
69 1 0.948081 0.273539 0.5
267 1 0.133473 0.257383 0.5
118 1 0.149408 0.211592 0.5
262 1 0.267155 0.186196 0.5
362 1 0.329132 0.257304 0.5
101 1 0.377632 0.26887 0.5
383 1 0.420919 0.239109 0.5
392 1 0.472462 0.252165 0.5
367 1 0.521658 0.253623 0.5
303 1 0.686164 0.189071 0.5
208 1 0.730266 0.285239 0.5
2 1 0.901109 0.233526 0.5
225 1 0.935296 0.320145 0.5
114 1 0.993772 0.25223 0.5
102 1 0.984244 0.304659 0.5
320 1 0.0865673 0.305711 0.5
99 1 0.181358 0.253493 0.5
282 1 0.239081 0.265818 0.5
387 1 0.282436 0.247561 0.5
55 1 0.349401 0.309895 0.5
190 1 0.481916 0.300479 0.5
308 1 0.575302 0.26668 0.5
4 1 0.628802 0.274205 0.5
349 1 0.678481 0.274866 0.5
60 1 0.753763 0.241208 0.5
40 1 0.851148 0.283035 0.5
94 1 0.90042 0.282078 0.5
32 1 0.988973 0.355578 0.5
136 1 0.13283 0.327256 0.5
325 1 0.173305 0.29972 0.5
153 1 0.223384 0.309024 0.5
17 1 0.289944 0.301617 0.5
47 1 0.399793 0.321593 0.5
323 1 0.435706 0.287438 0.5
92 1 0.58864 0.31506 0.5
21 1 0.637637 0.321626 0.5
373 1 0.706081 0.236641 0.5
261 1 0.690487 0.322243 0.5
265 1 0.783968 0.280022 0.5
348 1 0.813073 0.321011 0.5
299 1 0.882557 0.33074 0.5
382 1 0.0369808 0.332851 0.5
324 1 0.0299552 0.380272 0.5
200 1 0.182024 0.351318 0.5
13 1 0.268593 0.388767 0.5
172 1 0.307908 0.349744 0.5
374 1 0.359958 0.356233 0.5
217 1 0.414115 0.377726 0.5
350 1 0.452631 0.341343 0.5
173 1 0.535484 0.298943 0.5
91 1 0.755217 0.338245 0.5
316 1 0.796367 0.366047 0.5
351 1 0.842852 0.359033 0.5
111 1 0.911847 0.368544 0.5
214 1 0.0423665 0.443274 0.5
269 1 0.0883968 0.359956 0.5
317 1 0.260362 0.341926 0.5
280 1 0.216565 0.430395 0.5
68 1 0.327584 0.397504 0.5
237 1 0.501879 0.353362 0.5
74 1 0.555917 0.352345 0.5
274 1 0.603657 0.367353 0.5
266 1 0.652535 0.367665 0.5
207 1 0.905608 0.419008 0.5
185 1 0.948097 0.44463 0.5
318 1 0.951158 0.393294 0.5
76 1 0.995214 0.418051 0.5
248 1 0.044453 0.49523 0.5
379 1 0.0721086 0.404793 0.5
46 1 0.174536 0.400159 0.5
59 1 0.218989 0.380869 0.5
226 1 0.375151 0.420364 0.5
284 1 0.424888 0.428263 0.5
181 1 0.463508 0.391128 0.5
313 1 0.525889 0.395532 0.5
182 1 0.574371 0.407385 0.5
176 1 0.622786 0.413213 0.5
376 1 0.719817 0.428761 0.5
227 1 0.761133 0.402307 0.5
346 1 0.809123 0.413106 0.5
307 1 0.860557 0.403232 0.5
71 1 0.992127 0.464613 0.5
271 1 0.142389 0.51095 0.5
104 1 0.11745 0.434031 0.5
131 1 0.332785 0.445665 0.5
329 1 0.355794 0.488565 0.5
162 1 0.402692 0.469338 0.5
28 1 0.492248 0.431023 0.5
388 1 0.71398 0.380038 0.5
31 1 0.740687 0.486772 0.5
264 1 0.772079 0.448927 0.5
108 1 0.939512 0.496107 0.5
365 1 0.993634 0.513823 0.5
20 1 0.104608 0.479874 0.5
193 1 0.117699 0.567808 0.5
177 1 0.163704 0.445474 0.5
192 1 0.280782 0.442949 0.5
327 1 0.305614 0.491741 0.5
268 1 0.425686 0.510553 0.5
279 1 0.460079 0.463789 0.5
146 1 0.507836 0.480756 0.5
354 1 0.543145 0.449117 0.5
245 1 0.593546 0.457654 0.5
148 1 0.676123 0.413584 0.5
347 1 0.695531 0.469844 0.5
56 1 0.823688 0.461348 0.5
390 1 0.88816 0.463769 0.5
134 1 0.900273 0.527648 0.5
143 1 0.0195904 0.55519 0.5
37 1 0.0926372 0.526888 0.5
50 1 0.187955 0.48728 0.5
80 1 0.218919 0.528359 0.5
309 1 0.257355 0.485441 0.5
10 1 0.47191 0.52059 0.5
384 1 0.563164 0.498873 0.5
236 1 0.668951 0.509543 0.5
161 1 0.714097 0.525587 0.5
121 1 0.797138 0.500866 0.5
125 1 0.843494 0.512482 0.5
82 1 0.955175 0.546495 0.5
62 1 0.977995 0.587693 0.5
9 1 0.167626 0.553808 0.5
159 1 0.174596 0.603645 0.5
293 1 0.329428 0.532731 0.5
26 1 0.38589 0.547939 0.5
343 1 0.483556 0.569986 0.5
240 1 0.52445 0.526424 0.5
330 1 0.643645 0.45896 0.5
233 1 0.732003 0.575929 0.5
368 1 0.868257 0.563835 0.5
75 1 0.916362 0.573736 0.5
126 1 0.0239723 0.619738 0.5
211 1 0.0683576 0.569685 0.5
263 1 0.128838 0.622416 0.5
244 1 0.217504 0.577616 0.5
345 1 0.279825 0.532813 0.5
209 1 0.345005 0.583366 0.5
128 1 0.402523 0.597733 0.5
171 1 0.438284 0.561118 0.5
312 1 0.613991 0.50196 0.5
247 1 0.633079 0.545543 0.5
189 1 0.678225 0.565542 0.5
399 1 0.745918 0.629594 0.5
231 1 0.760827 0.534475 0.5
24 1 0.812462 0.547629 0.5
86 1 0.835846 0.604365 0.5
115 1 0.886497 0.625927 0.5
16 1 0.939803 0.639962 0.5
319 1 0.0466649 0.665234 0.5
140 1 0.0799551 0.622347 0.5
391 1 0.253057 0.611267 0.5
380 1 0.295712 0.583501 0.5
164 1 0.458059 0.611183 0.5
335 1 0.544547 0.57204 0.5
44 1 0.584363 0.544495 0.5
305 1 0.599075 0.593453 0.5
396 1 0.694943 0.611259 0.5
167 1 0.794248 0.644846 0.5
42 1 0.850586 0.658266 0.5
311 1 0.986166 0.649832 0.5
290 1 0.16811 0.650632 0.5
219 1 0.213921 0.644702 0.5
300 1 0.307664 0.63054 0.5
352 1 0.357734 0.631121 0.5
110 1 0.418685 0.643983 0.5
221 1 0.528456 0.659861 0.5
54 1 0.559042 0.619809 0.5
100 1 0.646692 0.606718 0.5
12 1 0.711614 0.670271 0.5
363 1 0.778705 0.592308 0.5
206 1 0.760091 0.6793 0.5
294 1 0.788747 0.729667 0.5
223 1 0.899846 0.672243 0.5
160 1 0.953387 0.68596 0.5
51 1 0.0618726 0.729205 0.5
375 1 0.141585 0.693792 0.5
283 1 0.196992 0.704771 0.5
288 1 0.265281 0.658557 0.5
334 1 0.318221 0.675267 0.5
372 1 0.51015 0.612589 0.5
397 1 0.543176 0.723538 0.5
109 1 0.606513 0.644343 0.5
370 1 0.64401 0.752678 0.5
141 1 0.726816 0.716021 0.5
246 1 0.797196 0.783773 0.5
389 1 0.835434 0.748306 0.5
34 1 0.987766 0.788141 0.5
158 1 0.0034113 0.700146 0.5
64 1 0.0910535 0.686021 0.5
398 1 0.158879 0.744663 0.5
96 1 0.25237 0.711552 0.5
286 1 0.297292 0.722347 0.5
97 1 0.370409 0.68453 0.5
72 1 0.419963 0.693302 0.5
369 1 0.572528 0.676962 0.5
138 1 0.631806 0.684549 0.5
103 1 0.666978 0.652328 0.5
296 1 0.748321 0.76492 0.5
254 1 0.810169 0.84121 0.5
249 1 0.815993 0.689424 0.5
169 1 0.0196544 0.753978 0.5
142 1 0.110099 0.73166 0.5
66 1 0.208884 0.752051 0.5
342 1 0.266721 0.766463 0.5
204 1 0.34737 0.727666 0.5
310 1 0.39795 0.736861 0.5
120 1 0.445926 0.732113 0.5
203 1 0.479272 0.656225 0.5
275 1 0.49897 0.7525 0.5
139 1 0.590939 0.727221 0.5
57 1 0.673919 0.708002 0.5
322 1 0.717404 0.8177 0.5
119 1 0.863808 0.705543 0.5
197 1 0.0683798 0.777843 0.5
218 1 0.064185 0.864507 0.5
202 1 0.127219 0.787335 0.5
65 1 0.173133 0.799659 0.5
258 1 0.227404 0.797451 0.5
127 1 0.315941 0.765241 0.5
187 1 0.365685 0.777839 0.5
107 1 0.491191 0.705415 0.5
87 1 0.571117 0.777852 0.5
198 1 0.692916 0.752221 0.5
5 1 0.764272 0.827057 0.5
255 1 0.855922 0.798655 0.5
11 1 0.969013 0.734439 0.5
84 1 0.916203 0.718834 0.5
85 1 0.0896076 0.821593 0.5
106 1 0.139885 0.838969 0.5
93 1 0.273982 0.819343 0.5
113 1 0.327149 0.821299 0.5
256 1 0.4129 0.786607 0.5
278 1 0.523182 0.797877 0.5
201 1 0.614695 0.79678 0.5
235 1 0.671901 0.795359 0.5
58 1 0.717702 0.87568 0.5
220 1 0.858822 0.854518 0.5
212 1 0.883168 0.754671 0.5
277 1 0.0202866 0.836618 0.5
23 1 0.0344448 0.902948 0.5
295 1 0.110226 0.882068 0.5
88 1 0.19144 0.850512 0.5
364 1 0.241751 0.859764 0.5
184 1 0.299134 0.863997 0.5
199 1 0.374753 0.827021 0.5
90 1 0.427207 0.830612 0.5
147 1 0.465756 0.787091 0.5
222 1 0.482296 0.832164 0.5
243 1 0.572639 0.827546 0.5
8 1 0.629387 0.841488 0.5
195 1 0.677528 0.849982 0.5
337 1 0.777224 0.881982 0.5
83 1 0.909633 0.810494 0.5
95 1 0.962767 0.833272 0.5
180 1 0.938998 0.772187 0.5
229 1 0.981322 0.877261 0.5
314 1 0.157246 0.886116 0.5
151 1 0.20767 0.902899 0.5
341 1 0.347332 0.869382 0.5
339 1 0.398942 0.870843 0.5
156 1 0.445878 0.877015 0.5
291 1 0.532821 0.854379 0.5
79 1 0.644481 0.88827 0.5
137 1 0.685029 0.912923 0.5
331 1 0.826533 0.891163 0.5
61 1 0.880235 0.901998 0.5
168 1 0.923066 0.86325 0.5
3 1 0.0789636 0.920835 0.5
289 1 0.136743 0.931284 0.5
234 1 0.18377 0.944865 0.5
67 1 0.259733 0.908631 0.5
6 1 0.314438 0.91463 0.5
52 1 0.494952 0.882625 0.5
292 1 0.575587 0.8839 0.5
216 1 0.730912 0.920633 0.5
22 1 0.779509 0.934838 0.5
165 1 0.942039 0.911648 0.5
170 1 0.9922 0.927641 0.5
19 1 0.0467957 0.95981 0.5
186 1 0.0973834 0.97365 0.5
41 1 0.149896 0.983195 0.5
130 1 0.233815 0.94865 0.5
276 1 0.282841 0.953039 0.5
48 1 0.361558 0.91781 0.5
39 1 0.416431 0.914721 0.5
123 1 0.467925 0.921552 0.5
112 1 0.502412 0.960457 0.5
45 1 0.533676 0.92094 0.5
358 1 0.642141 0.949782 0.5
213 1 0.606138 0.986322 0.5
144 1 0.701105 0.971492 0.5
163 1 0.751236 0.972367 0.5
43 1 0.842305 0.936541 0.5
344 1 0.896583 0.949829 0.5
224 1 0.960823 0.960174 0.5
260 1 0.0586997 0.00765453 0.5
30 1 0.205932 0.990392 0.5
359 1 0.253983 0.995352 0.5
27 1 0.337292 0.959822 0.5
395 1 0.390686 0.961992 0.5
174 1 0.445692 0.96712 0.5
251 1 0.465563 0.0169476 0.5
178 1 0.59366 0.931805 0.5
257 1 0.662272 0.00344544 0.5
210 1 0.799756 0.98172 0.5
117 1 0.00858217 0.984051 0.5
