 DBCSR| CPU Multiplication driver                                           XSMM
 DBCSR| Multrec recursion limit                                              512
 DBCSR| Multiplication stack size                                           1000
 DBCSR| Maximum elements for images                                    UNLIMITED
 DBCSR| Multiplicative factor virtual images                                   1
 DBCSR| Use multiplication densification                                       T
 DBCSR| Multiplication size stacks                                             3
 DBCSR| Use memory pool for CPU allocation                                     F
 DBCSR| Number of 3D layers                                               SINGLE
 DBCSR| Use MPI memory allocation                                              F
 DBCSR| Use RMA algorithm                                                      F
 DBCSR| Use Communication thread                                               T
 DBCSR| Communication thread load                                             87
 DBCSR| MPI: My node id                                                        0
 DBCSR| MPI: Number of nodes                                                  12
 DBCSR| OMP: Current number of threads                                         1
 DBCSR| OMP: Max number of threads                                             1
 DBCSR| Split modifier for TAS multiplication algorithm                  1.0E+00


  **** **** ******  **  PROGRAM STARTED AT               2024-11-21 13:31:26.407
 ***** ** ***  *** **   PROGRAM STARTED ON                     cm016.hpc.nyu.edu
 **    ****   ******    PROGRAM STARTED BY                                jw8872
 ***** **    ** ** **   PROGRAM PROCESS ID                               3655766
  **** **  *******  **  PROGRAM STARTED IN /scratch/work/courses/CHEM-GA-2671-20
                                           24fa/students/jw8872/comp-lab-class-2
                                           024/Week12-IntroAIMD/Runs/Proton

 CP2K| version string:                    CP2K version 8.0 (Development Version)
 CP2K| source code revision number:                                  git:8c64c6e
 CP2K| cp2kflags: omp libint fftw3 libxc elpa parallel mpi3 scalapack xsmm max_c
 CP2K|            ontr=4 mkl
 CP2K| is freely available from                            https://www.cp2k.org/
 CP2K| Program compiled at                          Sat Dec 12 18:27:15 EST 2020
 CP2K| Program compiled on                                     cs001.nyu.cluster
 CP2K| Program compiled for                                            nyu-intel
 CP2K| Data directory path                    /home/wang/cp2k-20201212/cp2k/data
 CP2K| Input file name                                                proton.inp
 
 GLOBAL| Force Environment number                                              1
 GLOBAL| Basis set file name                                           HFX_BASIS
 GLOBAL| Potential file name                                      GTH_POTENTIALS
 GLOBAL| MM Potential file name                                     MM_POTENTIAL
 GLOBAL| Coordinate file name                                         proton.xyz
 GLOBAL| Method name                                                        CP2K
 GLOBAL| Project name                                 proton_aimd_1ns_every0.5fs
 GLOBAL| Preferred FFT library                                             FFTW3
 GLOBAL| Preferred diagonalization lib.                                     ELPA
 GLOBAL| Run type                                                             MD
 GLOBAL| All-to-all communication in single precision                          F
 GLOBAL| FFTs using library dependent lengths                                  F
 GLOBAL| Global print level                                                  LOW
 GLOBAL| MPI I/O enabled                                                       T
 GLOBAL| Total number of message passing processes                            12
 GLOBAL| Number of threads for this process                                    1
 GLOBAL| This output is from process                                           0
 GLOBAL| CPU model name             Intel(R) Xeon(R) Platinum 8268 CPU @ 2.90GHz
 GLOBAL| CPUID                                                              1003
 GLOBAL| Compiled for CPUID                                                    0

 *** HINT in environment.F:801 :: The compiler target flags (generic) used ***
 *** to build this binary cannot exploit all extensions of this CPU model  ***
 *** (x86_avx512). Consider compiler target flags as part of FCFLAGS and   ***
 *** CFLAGS (ARCH file).                                                   ***


 MEMORY| system memory details [Kb]
 MEMORY|                        rank 0           min           max       average
 MEMORY| MemTotal            395391376     395391376     395391376     395391376
 MEMORY| MemFree             295817188     295817188     295817188     295817188
 MEMORY| Buffers                108656        108656        108656        108656
 MEMORY| Cached               73737856      73737856      73737856      73737856
 MEMORY| Slab                  1540748       1540748       1540748       1540748
 MEMORY| SReclaimable           912228        912228        912228        912228
 MEMORY| MemLikelyFree       370575928     370575928     370575928     370575928

 
 GENERATE|  Preliminary Number of Bonds generated:                             0
 GENERATE|  Achieved consistency in connectivity generation.

 *******************************************************************************
 *******************************************************************************
 **                                                                           **
 **     #####                         ##              ##                      **
 **    ##   ##            ##          ##              ##                      **
 **   ##     ##                       ##            ######                    **
 **   ##     ##  ##   ##  ##   #####  ##  ##   ####   ##    #####    #####    **
 **   ##     ##  ##   ##  ##  ##      ## ##   ##      ##   ##   ##  ##   ##   **
 **   ##  ## ##  ##   ##  ##  ##      ####     ###    ##   ######   ######    **
 **    ##  ###   ##   ##  ##  ##      ## ##      ##   ##   ##       ##        **
 **     #######   #####   ##   #####  ##  ##  ####    ##    #####   ##        **
 **           ##                                                    ##        **
 **                                                                           **
 **                                                ... make the atoms dance   **
 **                                                                           **
 **            Copyright (C) by CP2K developers group (2000 - 2020)           **
 **                      J. Chem. Phys. 152, 194103 (2020)                    **
 **                                                                           **
 *******************************************************************************


 TOTAL NUMBERS AND MAXIMUM NUMBERS

  Total number of            - Atomic kinds:                                   2
                             - Atoms:                                        193
                             - Shell sets:                                   579
                             - Shells:                                       707
                             - Primitive Cartesian functions:                965
                             - Cartesian basis functions:                   1541
                             - Spherical basis functions:                   1477

  Maximum angular momentum of- Orbital basis functions:                        2
                             - Local part of the GTH pseudopotential:          2
                             - Non-local part of the GTH pseudopotential:      0


 SCF PARAMETERS         Density guess:                                    ATOMIC
                        --------------------------------------------------------
                        max_scf:                                              30
                        max_scf_history:                                       0
                        max_diis:                                              4
                        --------------------------------------------------------
                        eps_scf:                                        1.00E-06
                        eps_scf_history:                                0.00E+00
                        eps_diis:                                       1.00E-01
                        eps_eigval:                                     1.00E-05
                        --------------------------------------------------------
                        level_shift [a.u.]:                                 0.00
                        --------------------------------------------------------
                        Outer loop SCF in use 
                        No variables optimised in outer loop
                        eps_scf                                         1.00E-06
                        max_scf                                               10
                        No outer loop optimization
                        step_size                                       5.00E-01
 
 MD_PAR| Molecular dynamics protocol (MD input parameters)
 MD_PAR| Ensemble type                                                       NVT
 MD_PAR| Number of time steps                                               2000
 MD_PAR| Time step [fs]                                                 0.500000
 MD_PAR| Temperature [K]                                              300.000000
 MD_PAR| Temperature tolerance [K]                                      0.000000
 MD_PAR| Print MD information every                                    1 step(s)
 MD_PAR| File type   Print frequency [steps]                          File names
 MD_PAR| Coordinates          1             proton_aimd_1ns_every0.5fs-pos-1.xyz
 MD_PAR| Velocities           1             proton_aimd_1ns_every0.5fs-vel-1.xyz
 MD_PAR| Energies             1                proton_aimd_1ns_every0.5fs-1.ener
 MD_PAR| Dump                 1             proton_aimd_1ns_every0.5fs-1.restart

 ROT| Rotational analysis information
 ROT| Principal axes and moments of inertia [a.u.]
 ROT|                           1                   2                   3
 ROT| Eigenvalues      2.05589290134E+08   2.18423915129E+08   2.44822110499E+08
 ROT|      x              0.422425861113     -0.517164314801      0.744377231892
 ROT|      y              0.905668040919      0.207889039445     -0.369523405127
 ROT|      z              0.036356450892      0.830254911925      0.556196898322
 ROT| Number of rotovibrational vectors                                        6

 DOF| Calculation of degrees of freedom
 DOF| Number of atoms                                                        193
 DOF| Number of intramolecular constraints                                     0
 DOF| Number of intermolecular constraints                                     0
 DOF| Invariants (translations + rotations)                                    0
 DOF| Degrees of freedom                                                     579

 DOF| Restraints information
 DOF| Number of intramolecular restraints                                      0
 DOF| Number of intermolecular restraints                                      0

 THERMOSTAT| Thermostat information for PARTICLES
 THERMOSTAT| End of thermostat information for PARTICLES

 MD_VEL| Velocities initialization
 MD_VEL| Initial temperature [K]                                      300.000000
 MD_VEL| COM velocity            -0.0000000000    -0.0000000000    -0.0000000000

 Number of electrons:                                                        512
 Number of occupied orbitals:                                                256
 Number of molecular orbitals:                                               256

 Number of orbital functions:                                               1477
 Number of independent orbital functions:                                   1477

 Extrapolation method: initial_guess


 SCF WAVEFUNCTION OPTIMIZATION

  ----------------------------------- OT ---------------------------------------
  Minimizer      : DIIS                : direct inversion
                                         in the iterative subspace
                                         using   7 DIIS vectors
                                         safer DIIS on
  Preconditioner : FULL_SINGLE_INVERSE : inversion of 
                                         H + eS - 2*(Sc)(c^T*H*c+const)(Sc)^T
  Precond_solver : DEFAULT
  stepsize       :    0.08000000                  energy_gap     :    0.08000000
  eps_taylor     :   0.10000E-15                  max_taylor     :             4
  ----------------------------------- OT ---------------------------------------

  Step     Update method      Time    Convergence         Total energy    Change
  ------------------------------------------------------------------------------
     1 OT DIIS     0.80E-01   24.4     0.02988406     -1059.4199772455 -1.06E+03
     2 OT DIIS     0.80E-01    9.8     0.02137171     -1079.5328717290 -2.01E+01
     3 OT DIIS     0.80E-01   12.0     0.01673562     -1089.9912422952 -1.05E+01
     4 OT DIIS     0.80E-01   12.3     0.01027714     -1097.9787621295 -7.99E+00
     5 OT DIIS     0.80E-01   10.3     0.00604132     -1100.7514557647 -2.77E+00
     6 OT DIIS     0.80E-01   10.6     0.00387134     -1101.8880620161 -1.14E+00
     7 OT DIIS     0.80E-01   10.9     0.00267947     -1102.2444956907 -3.56E-01
     8 OT DIIS     0.80E-01   10.2     0.00215084     -1102.5002005761 -2.56E-01
     9 OT DIIS     0.80E-01   10.8     0.00189090     -1102.6601278178 -1.60E-01
    10 OT DIIS     0.80E-01   11.9     0.00155050     -1102.7952294632 -1.35E-01
    11 OT DIIS     0.80E-01   11.8     0.00115541     -1102.8968812574 -1.02E-01
    12 OT DIIS     0.80E-01   10.8     0.00095342     -1102.9472933643 -5.04E-02
    13 OT DIIS     0.80E-01   10.5     0.00064757     -1102.9973475257 -5.01E-02
    14 OT DIIS     0.80E-01   10.9     0.00054150     -1103.0195697066 -2.22E-02
    15 OT DIIS     0.80E-01   10.9     0.00035765     -1103.0426350714 -2.31E-02
    16 OT DIIS     0.80E-01   11.2     0.00027277     -1103.0530806866 -1.04E-02
    17 OT DIIS     0.80E-01   10.2     0.00019629     -1103.0598546610 -6.77E-03
    18 OT DIIS     0.80E-01    9.8     0.00015900     -1103.0629280922 -3.07E-03
    19 OT DIIS     0.80E-01   10.0     0.00013359     -1103.0650413400 -2.11E-03
    20 OT DIIS     0.80E-01   11.4     0.00011586     -1103.0664724371 -1.43E-03
    21 OT DIIS     0.80E-01   10.8     0.00010093     -1103.0677202546 -1.25E-03
    22 OT DIIS     0.80E-01   11.5     0.00008917     -1103.0687992158 -1.08E-03
    23 OT DIIS     0.80E-01   10.9     0.00007950     -1103.0696283069 -8.29E-04
    24 OT DIIS     0.80E-01   10.5     0.00007090     -1103.0705045032 -8.76E-04
    25 OT DIIS     0.80E-01   10.1     0.00006210     -1103.0712213996 -7.17E-04
    26 OT DIIS     0.80E-01   11.6     0.00005639     -1103.0717189891 -4.98E-04
    27 OT DIIS     0.80E-01   10.6     0.00005055     -1103.0721939314 -4.75E-04
    28 OT DIIS     0.80E-01    9.9     0.00004565     -1103.0725679765 -3.74E-04
    29 OT DIIS     0.80E-01   10.4     0.00004199     -1103.0728348187 -2.67E-04
    30 OT DIIS     0.80E-01   10.4     0.00003834     -1103.0730925492 -2.58E-04

  Leaving inner SCF loop after reaching    30 steps.


  Electronic density on regular grids:       -511.9999999887        0.0000000113
  Core density on regular grids:              512.9999999831       -0.0000000169
  Total charge density on r-space grids:        0.9999999944
  Total charge density g-space grids:           0.9999999944

  Overlap energy of the core charge distribution:               0.00000237830931
  Self energy of the core charge distribution:              -2839.62839375007934
  Core Hamiltonian energy:                                    829.99167903749492
  Hartree energy:                                            1178.75720438891176
  Exchange-correlation energy:                               -271.94550353752686
  Dispersion energy:                                           -0.24808106630864

  Total energy:                                             -1103.07309254919892

  outer SCF iter =    1 RMS gradient =   0.38E-04 energy =      -1103.0730925492

  ----------------------------------- OT ---------------------------------------
  Minimizer      : DIIS                : direct inversion
                                         in the iterative subspace
                                         using   7 DIIS vectors
                                         safer DIIS on
  Preconditioner : FULL_SINGLE_INVERSE : inversion of 
                                         H + eS - 2*(Sc)(c^T*H*c+const)(Sc)^T
  Precond_solver : DEFAULT
  stepsize       :    0.08000000                  energy_gap     :    0.08000000
  eps_taylor     :   0.10000E-15                  max_taylor     :             4
  ----------------------------------- OT ---------------------------------------

  Step     Update method      Time    Convergence         Total energy    Change
  ------------------------------------------------------------------------------
     1 OT DIIS     0.80E-01   31.2     0.00020523     -1103.0732897602 -1.97E-04
     2 OT DIIS     0.80E-01    6.9     0.00012739     -1103.0742905257 -1.00E-03
     3 OT DIIS     0.80E-01    7.5     0.00008639     -1103.0748497853 -5.59E-04
     4 OT DIIS     0.80E-01    7.1     0.00005527     -1103.0749636303 -1.14E-04
     5 OT DIIS     0.80E-01    7.9     0.00002401     -1103.0750026699 -3.90E-05
     6 OT DIIS     0.80E-01    8.5     0.00001009     -1103.0750164552 -1.38E-05
     7 OT DIIS     0.80E-01    7.6     0.00000538     -1103.0750199808 -3.53E-06
     8 OT DIIS     0.80E-01    8.3     0.00000280     -1103.0750208686 -8.88E-07
     9 OT DIIS     0.80E-01    8.4     0.00000154     -1103.0750211180 -2.49E-07
    10 OT DIIS     0.80E-01    8.7     0.00000095     -1103.0750211852 -6.72E-08

  *** SCF run converged in    10 steps ***


  Electronic density on regular grids:       -511.9999999887        0.0000000113
  Core density on regular grids:              512.9999999831       -0.0000000169
  Total charge density on r-space grids:        0.9999999944
  Total charge density g-space grids:           0.9999999944

  Overlap energy of the core charge distribution:               0.00000237830931
  Self energy of the core charge distribution:              -2839.62839375007934
  Core Hamiltonian energy:                                    829.98873610129260
  Hartree energy:                                            1178.75844572881533
  Exchange-correlation energy:                               -271.94573057722209
  Dispersion energy:                                           -0.24808106630864

  Total energy:                                             -1103.07502118519324

  outer SCF iter =    2 RMS gradient =   0.95E-06 energy =      -1103.0750211852
  outer SCF loop converged in   2 iterations or   40 steps

  
  Eigenvalues of the occupied subspace spin            1
 ---------------------------------------------
      -1.07624873     -0.87303898     -0.83891224     -0.82654487
      -0.82585329     -0.82400474     -0.82146881     -0.81881719
      -0.81636515     -0.81023493     -0.80907508     -0.80784358
      -0.80704800     -0.80483125     -0.80276185     -0.80118305
      -0.79848258     -0.79762992     -0.79632724     -0.79391769
      -0.79320779     -0.78924346     -0.78887640     -0.78743868
      -0.78692403     -0.78453474     -0.78402373     -0.78331261
      -0.78214756     -0.78152195     -0.77920675     -0.77873650
      -0.77747025     -0.77656620     -0.77574552     -0.77480715
      -0.77296443     -0.77160897     -0.77130268     -0.76912245
      -0.76864251     -0.76616104     -0.76558821     -0.76528521
      -0.76471104     -0.76410032     -0.76304731     -0.76231356
      -0.76179147     -0.76107089     -0.76019306     -0.75774133
      -0.75677971     -0.75654414     -0.75372935     -0.74967806
      -0.74158796     -0.73995601     -0.73909758     -0.73892612
      -0.73738290     -0.73508281     -0.72540087     -0.72087567
      -0.57149675     -0.51481040     -0.44388592     -0.41649536
      -0.39258787     -0.39238559     -0.38967349     -0.38374569
      -0.37666726     -0.37484888     -0.37405323     -0.37164803
      -0.36912400     -0.36535355     -0.36288014     -0.36193738
      -0.36098043     -0.35778863     -0.35615414     -0.35542456
      -0.35332385     -0.35230796     -0.35061629     -0.35027617
      -0.34860945     -0.34746776     -0.34557213     -0.34507469
      -0.34382920     -0.34284583     -0.34160436     -0.34121445
      -0.33794409     -0.33681601     -0.33500797     -0.33421977
      -0.33368007     -0.33285775     -0.33185142     -0.33122520
      -0.32874695     -0.32834197     -0.32713982     -0.32578014
      -0.32469956     -0.32444536     -0.32393906     -0.32299239
      -0.32192171     -0.32162155     -0.31871452     -0.31820975
      -0.31737134     -0.31675727     -0.31391775     -0.31141126
      -0.30971961     -0.30822837     -0.30652688     -0.30564019
      -0.30466778     -0.30030930     -0.29923006     -0.29844578
      -0.29298339     -0.28843212     -0.28676292     -0.27638538
      -0.26935945     -0.25946844     -0.25629622     -0.25430674
      -0.25246445     -0.25002573     -0.24524760     -0.24307065
      -0.24158117     -0.24022672     -0.23756080     -0.23605100
      -0.23562554     -0.23225047     -0.23022744     -0.22727888
      -0.22564099     -0.22405696     -0.22244770     -0.22147103
      -0.21976415     -0.21862387     -0.21669894     -0.21607769
      -0.21340090     -0.21129954     -0.21014461     -0.20817751
      -0.20774688     -0.20645109     -0.20606833     -0.20441459
      -0.20149579     -0.19953890     -0.19886025     -0.19715374
      -0.19642192     -0.19446451     -0.19359381     -0.19179521
      -0.18911716     -0.18870709     -0.18766002     -0.18566259
      -0.18437971     -0.18323433     -0.18244288     -0.18000677
      -0.17958380     -0.17773436     -0.17676050     -0.17651113
      -0.17459203     -0.17322838     -0.17195745     -0.17081953
      -0.16965775     -0.16895131     -0.16784757     -0.16495739
      -0.16234992     -0.16016035     -0.15936830     -0.15859472
      -0.15673271     -0.15601911     -0.15409882     -0.15255754
      -0.15073488     -0.14822013     -0.14662696     -0.14514832
      -0.14353154     -0.14182803     -0.14052744     -0.13991550
      -0.13926607     -0.13676839     -0.13592604     -0.13494916
      -0.13414489     -0.13312390     -0.13224971     -0.13105396
      -0.12974284     -0.12856661     -0.12698661     -0.12646107
      -0.12610315     -0.12362116     -0.12291816     -0.12265395
      -0.12230684     -0.12051154     -0.11928815     -0.11843225
      -0.11802509     -0.11753998     -0.11667991     -0.11591237
      -0.11387774     -0.11300318     -0.11246283     -0.11224094
      -0.11125437     -0.11008920     -0.10928767     -0.10872831
      -0.10807322     -0.10702573     -0.10602304     -0.10540055
      -0.10468656     -0.10360844     -0.10158408     -0.09997295
      -0.09971745     -0.09852910     -0.09564358     -0.09521720
      -0.09363833     -0.08748520     -0.08610198     -0.08463544
 Fermi Energy [eV] :   -2.303048
  
  Lowest Eigenvalues of the unoccupied subspace spin            1
 -----------------------------------------------------
  Reached convergence in           79  iterations 
       0.01464069      0.08329093      0.09475530      0.11350864
  
 HOMO - LUMO gap [eV] :    2.701441

 ENERGY| Total FORCE_EVAL ( QS ) energy [a.u.]:            -1103.075021212481261

 MD_INI| MD initialization
 MD_INI| Potential energy [hartree]                          -0.110307502121E+04
 MD_INI| Kinetic energy [hartree]                             0.275037912564E+00
 MD_INI| Temperature [K]                                              300.000000
 MD_INI| Cell volume [bohr^3]                                 1.292889458088E+04
 MD_INI| Cell volume [ang^3]                                  1.915864488000E+03
 MD_INI| Cell lengths [bohr]      2.34703986E+01  2.34703986E+01  2.34703986E+01
 MD_INI| Cell lengths [ang]       1.24200000E+01  1.24200000E+01  1.24200000E+01
 MD_INI| Cell angles [deg]        9.00000000E+01  9.00000000E+01  9.00000000E+01

 Number of electrons:                                                        512
 Number of occupied orbitals:                                                256
 Number of molecular orbitals:                                               256

 Number of orbital functions:                                               1477
 Number of independent orbital functions:                                   1477

 Extrapolation method: ASPC


 SCF WAVEFUNCTION OPTIMIZATION

  ----------------------------------- OT ---------------------------------------
  Minimizer      : DIIS                : direct inversion
                                         in the iterative subspace
                                         using   7 DIIS vectors
                                         safer DIIS on
  Preconditioner : FULL_SINGLE_INVERSE : inversion of 
                                         H + eS - 2*(Sc)(c^T*H*c+const)(Sc)^T
  Precond_solver : DEFAULT
  stepsize       :    0.08000000                  energy_gap     :    0.08000000
  eps_taylor     :   0.10000E-15                  max_taylor     :             4
  ----------------------------------- OT ---------------------------------------

  Step     Update method      Time    Convergence         Total energy    Change
  ------------------------------------------------------------------------------
     1 OT DIIS     0.80E-01   16.5     0.00033967     -1103.0739427685 -1.10E+03
     2 OT DIIS     0.80E-01    8.0     0.00019238     -1103.0765786993 -2.64E-03
     3 OT DIIS     0.80E-01    7.2     0.00009023     -1103.0777772971 -1.20E-03
     4 OT DIIS     0.80E-01    7.4     0.00005894     -1103.0779843155 -2.07E-04
     5 OT DIIS     0.80E-01    8.0     0.00003679     -1103.0780182959 -3.40E-05
     6 OT DIIS     0.80E-01    7.9     0.00001155     -1103.0780384448 -2.01E-05
     7 OT DIIS     0.80E-01    7.8     0.00000458     -1103.0780409794 -2.53E-06
     8 OT DIIS     0.80E-01    7.1     0.00000187     -1103.0780414957 -5.16E-07
     9 OT DIIS     0.80E-01    8.0     0.00000097     -1103.0780415844 -8.87E-08

  *** SCF run converged in     9 steps ***


  Electronic density on regular grids:       -511.9999999886        0.0000000114
  Core density on regular grids:              512.9999999831       -0.0000000169
  Total charge density on r-space grids:        0.9999999945
  Total charge density g-space grids:           0.9999999945

  Overlap energy of the core charge distribution:               0.00000229837758
  Self energy of the core charge distribution:              -2839.62839375007934
  Core Hamiltonian energy:                                    829.77648570403767
  Hartree energy:                                            1178.90760527885664
  Exchange-correlation energy:                               -271.88566834355049
  Dispersion energy:                                           -0.24807277200266

  Total energy:                                             -1103.07804158436056

  outer SCF iter =    1 RMS gradient =   0.97E-06 energy =      -1103.0780415844
  outer SCF loop converged in   1 iterations or    9 steps


 ENERGY| Total FORCE_EVAL ( QS ) energy [a.u.]:            -1103.078041605709132

 MD| ***************************************************************************
 MD| Step number                                                               1
 MD| Time [fs]                                                          0.500000
 MD| Conserved quantity [hartree]                            -0.110280002297E+04
 MD| ---------------------------------------------------------------------------
 MD|                                          Instantaneous             Averages
 MD| CPU time per MD step [s]                    904.105749           904.105749
 MD| Energy drift per atom [K]          -0.649135089193E-01   0.000000000000E+00
 MD| Potential energy [hartree]         -0.110307804161E+04  -0.110307804161E+04
 MD| Kinetic energy [hartree]            0.276991763799E+00   0.276991763799E+00
 MD| Temperature [K]                             302.131180           302.131180
 MD| ***************************************************************************

 Number of electrons:                                                        512
 Number of occupied orbitals:                                                256
 Number of molecular orbitals:                                               256

 Number of orbital functions:                                               1477
 Number of independent orbital functions:                                   1477

 Extrapolation method: ASPC


 SCF WAVEFUNCTION OPTIMIZATION

  ----------------------------------- OT ---------------------------------------
  Minimizer      : DIIS                : direct inversion
                                         in the iterative subspace
                                         using   7 DIIS vectors
                                         safer DIIS on
  Preconditioner : FULL_SINGLE_INVERSE : inversion of 
                                         H + eS - 2*(Sc)(c^T*H*c+const)(Sc)^T
  Precond_solver : DEFAULT
  stepsize       :    0.08000000                  energy_gap     :    0.08000000
  eps_taylor     :   0.10000E-15                  max_taylor     :             4
  ----------------------------------- OT ---------------------------------------

  Step     Update method      Time    Convergence         Total energy    Change
  ------------------------------------------------------------------------------
     1 OT DIIS     0.80E-01   16.3     0.00019027     -1103.0873805964 -1.10E+03
     2 OT DIIS     0.80E-01    7.5     0.00010570     -1103.0881831107 -8.03E-04
     3 OT DIIS     0.80E-01    7.2     0.00009404     -1103.0884608833 -2.78E-04
     4 OT DIIS     0.80E-01    7.6     0.00004487     -1103.0885485244 -8.76E-05
     5 OT DIIS     0.80E-01    6.9     0.00001549     -1103.0885757858 -2.73E-05
     6 OT DIIS     0.80E-01    7.4     0.00000773     -1103.0885821043 -6.32E-06
     7 OT DIIS     0.80E-01    7.4     0.00000267     -1103.0885833366 -1.23E-06
     8 OT DIIS     0.80E-01    7.2     0.00000130     -1103.0885835158 -1.79E-07
     9 OT DIIS     0.80E-01    6.9     0.00000076     -1103.0885835454 -2.96E-08

  *** SCF run converged in     9 steps ***


  Electronic density on regular grids:       -511.9999999885        0.0000000115
  Core density on regular grids:              512.9999999831       -0.0000000169
  Total charge density on r-space grids:        0.9999999946
  Total charge density g-space grids:           0.9999999946

  Overlap energy of the core charge distribution:               0.00000208144726
  Self energy of the core charge distribution:              -2839.62839375007934
  Core Hamiltonian energy:                                    829.28944319605182
  Hartree energy:                                            1179.24491210406495
  Exchange-correlation energy:                               -271.74650947864052
  Dispersion energy:                                           -0.24803769825345

  Total energy:                                             -1103.08858354540939

  outer SCF iter =    1 RMS gradient =   0.76E-06 energy =      -1103.0885835454
  outer SCF loop converged in   1 iterations or    9 steps


 ENERGY| Total FORCE_EVAL ( QS ) energy [a.u.]:            -1103.088583557882203

 MD| ***************************************************************************
 MD| Step number                                                               2
 MD| Time [fs]                                                          1.000000
 MD| Conserved quantity [hartree]                            -0.110280026182E+04
 MD| ---------------------------------------------------------------------------
 MD|                                          Instantaneous             Averages
 MD| CPU time per MD step [s]                     86.996205           495.550977
 MD| Energy drift per atom [K]          -0.455693563459E+00  -0.227846781730E+00
 MD| Potential energy [hartree]         -0.110308858356E+04  -0.110308331258E+04
 MD| Kinetic energy [hartree]            0.272148498770E+00   0.274570131284E+00
 MD| Temperature [K]                             296.848347           299.489763
 MD| ***************************************************************************

 Number of electrons:                                                        512
 Number of occupied orbitals:                                                256
 Number of molecular orbitals:                                               256

 Number of orbital functions:                                               1477
 Number of independent orbital functions:                                   1477

 Extrapolation method: ASPC


 SCF WAVEFUNCTION OPTIMIZATION

  ----------------------------------- OT ---------------------------------------
  Minimizer      : DIIS                : direct inversion
                                         in the iterative subspace
                                         using   7 DIIS vectors
                                         safer DIIS on
  Preconditioner : FULL_SINGLE_INVERSE : inversion of 
                                         H + eS - 2*(Sc)(c^T*H*c+const)(Sc)^T
  Precond_solver : DEFAULT
  stepsize       :    0.08000000                  energy_gap     :    0.08000000
  eps_taylor     :   0.10000E-15                  max_taylor     :             4
  ----------------------------------- OT ---------------------------------------

  Step     Update method      Time    Convergence         Total energy    Change
  ------------------------------------------------------------------------------
     1 OT DIIS     0.80E-01   14.8     0.00019308     -1103.1040434531 -1.10E+03
     2 OT DIIS     0.80E-01    7.7     0.00010810     -1103.1048742042 -8.31E-04
     3 OT DIIS     0.80E-01    6.9     0.00008127     -1103.1051915864 -3.17E-04
     4 OT DIIS     0.80E-01    6.7     0.00005327     -1103.1052729677 -8.14E-05
     5 OT DIIS     0.80E-01    7.5     0.00001732     -1103.1053032814 -3.03E-05
     6 OT DIIS     0.80E-01    7.8     0.00000888     -1103.1053101258 -6.84E-06
     7 OT DIIS     0.80E-01    7.2     0.00000301     -1103.1053116720 -1.55E-06
     8 OT DIIS     0.80E-01    6.8     0.00000144     -1103.1053118751 -2.03E-07
     9 OT DIIS     0.80E-01    7.6     0.00000077     -1103.1053119142 -3.91E-08

  *** SCF run converged in     9 steps ***


  Electronic density on regular grids:       -511.9999999884        0.0000000116
  Core density on regular grids:              512.9999999831       -0.0000000169
  Total charge density on r-space grids:        0.9999999947
  Total charge density g-space grids:           0.9999999947

  Overlap energy of the core charge distribution:               0.00000176945703
  Self energy of the core charge distribution:              -2839.62839375007934
  Core Hamiltonian energy:                                    828.60950234758502
  Hartree energy:                                            1179.71295407138768
  Exchange-correlation energy:                               -271.55141811201167
  Dispersion energy:                                           -0.24795824056211

  Total energy:                                             -1103.10531191422342

  outer SCF iter =    1 RMS gradient =   0.77E-06 energy =      -1103.1053119142
  outer SCF loop converged in   1 iterations or    9 steps


 ENERGY| Total FORCE_EVAL ( QS ) energy [a.u.]:            -1103.105311929380832

 MD| ***************************************************************************
 MD| Step number                                                               3
 MD| Time [fs]                                                          1.500000
 MD| Conserved quantity [hartree]                            -0.110280064140E+04
 MD| ---------------------------------------------------------------------------
 MD|                                          Instantaneous             Averages
 MD| CPU time per MD step [s]                     86.043219           359.048391
 MD| Energy drift per atom [K]          -0.107674679473E+01  -0.510813452730E+00
 MD| Potential energy [hartree]         -0.110310531193E+04  -0.110309064570E+04
 MD| Kinetic energy [hartree]            0.285484809717E+00   0.278208357429E+00
 MD| Temperature [K]                             311.395044           303.458190
 MD| ***************************************************************************

 Number of electrons:                                                        512
 Number of occupied orbitals:                                                256
 Number of molecular orbitals:                                               256

 Number of orbital functions:                                               1477
 Number of independent orbital functions:                                   1477

 Extrapolation method: ASPC


 SCF WAVEFUNCTION OPTIMIZATION

  ----------------------------------- OT ---------------------------------------
  Minimizer      : DIIS                : direct inversion
                                         in the iterative subspace
                                         using   7 DIIS vectors
                                         safer DIIS on
  Preconditioner : FULL_SINGLE_INVERSE : inversion of 
                                         H + eS - 2*(Sc)(c^T*H*c+const)(Sc)^T
  Precond_solver : DEFAULT
  stepsize       :    0.08000000                  energy_gap     :    0.08000000
  eps_taylor     :   0.10000E-15                  max_taylor     :             4
  ----------------------------------- OT ---------------------------------------

  Step     Update method      Time    Convergence         Total energy    Change
  ------------------------------------------------------------------------------
     1 OT DIIS     0.80E-01   16.3     0.00020633     -1103.1174319628 -1.10E+03
     2 OT DIIS     0.80E-01    7.5     0.00011605     -1103.1183923039 -9.60E-04
     3 OT DIIS     0.80E-01    7.4     0.00006461     -1103.1188003919 -4.08E-04
     4 OT DIIS     0.80E-01    7.5     0.00004802     -1103.1188836126 -8.32E-05
     5 OT DIIS     0.80E-01    7.8     0.00001935     -1103.1189048842 -2.13E-05
     6 OT DIIS     0.80E-01    7.8     0.00000890     -1103.1189121334 -7.25E-06
     7 OT DIIS     0.80E-01    7.1     0.00000288     -1103.1189135764 -1.44E-06
     8 OT DIIS     0.80E-01    7.8     0.00000132     -1103.1189137898 -2.13E-07
     9 OT DIIS     0.80E-01    7.4     0.00000079     -1103.1189138235 -3.37E-08

  *** SCF run converged in     9 steps ***


  Electronic density on regular grids:       -511.9999999883        0.0000000117
  Core density on regular grids:              512.9999999831       -0.0000000169
  Total charge density on r-space grids:        0.9999999948
  Total charge density g-space grids:           0.9999999948

  Overlap energy of the core charge distribution:               0.00000149106328
  Self energy of the core charge distribution:              -2839.62839375007934
  Core Hamiltonian energy:                                    827.88226149791035
  Hartree energy:                                            1180.21688471107223
  Exchange-correlation energy:                               -271.34179373874269
  Dispersion energy:                                           -0.24787403469900

  Total energy:                                             -1103.11891382347517

  outer SCF iter =    1 RMS gradient =   0.79E-06 energy =      -1103.1189138235
  outer SCF loop converged in   1 iterations or    9 steps


 ENERGY| Total FORCE_EVAL ( QS ) energy [a.u.]:            -1103.118913836821093

 MD| ***************************************************************************
 MD| Step number                                                               4
 MD| Time [fs]                                                          2.000000
 MD| Conserved quantity [hartree]                            -0.110280087608E+04
 MD| ---------------------------------------------------------------------------
 MD|                                          Instantaneous             Averages
 MD| CPU time per MD step [s]                     90.554264           291.924859
 MD| Energy drift per atom [K]          -0.146071964493E+01  -0.748290000779E+00
 MD| Potential energy [hartree]         -0.110311891384E+04  -0.110309771273E+04
 MD| Kinetic energy [hartree]            0.287295836021E+00   0.280480227077E+00
 MD| Temperature [K]                             313.370437           305.936252
 MD| ***************************************************************************

 Number of electrons:                                                        512
 Number of occupied orbitals:                                                256
 Number of molecular orbitals:                                               256

 Number of orbital functions:                                               1477
 Number of independent orbital functions:                                   1477

 Extrapolation method: ASPC


 SCF WAVEFUNCTION OPTIMIZATION

  ----------------------------------- OT ---------------------------------------
  Minimizer      : DIIS                : direct inversion
                                         in the iterative subspace
                                         using   7 DIIS vectors
                                         safer DIIS on
  Preconditioner : FULL_SINGLE_INVERSE : inversion of 
                                         H + eS - 2*(Sc)(c^T*H*c+const)(Sc)^T
  Precond_solver : DEFAULT
  stepsize       :    0.08000000                  energy_gap     :    0.08000000
  eps_taylor     :   0.10000E-15                  max_taylor     :             4
  ----------------------------------- OT ---------------------------------------

  Step     Update method      Time    Convergence         Total energy    Change
  ------------------------------------------------------------------------------
     1 OT DIIS     0.80E-01   14.2     0.00025460     -1103.1286344008 -1.10E+03
     2 OT DIIS     0.80E-01    7.0     0.00014063     -1103.1300782283 -1.44E-03
     3 OT DIIS     0.80E-01    7.5     0.00007914     -1103.1306560641 -5.78E-04
     4 OT DIIS     0.80E-01    7.7     0.00005452     -1103.1307865632 -1.30E-04
     5 OT DIIS     0.80E-01    7.6     0.00002413     -1103.1308168906 -3.03E-05
     6 OT DIIS     0.80E-01    7.5     0.00001030     -1103.1308283363 -1.14E-05
     7 OT DIIS     0.80E-01    7.2     0.00000351     -1103.1308304123 -2.08E-06
     8 OT DIIS     0.80E-01    7.6     0.00000156     -1103.1308307318 -3.19E-07
     9 OT DIIS     0.80E-01    7.4     0.00000090     -1103.1308307835 -5.18E-08

  *** SCF run converged in     9 steps ***


  Electronic density on regular grids:       -511.9999999880        0.0000000120
  Core density on regular grids:              512.9999999831       -0.0000000169
  Total charge density on r-space grids:        0.9999999951
  Total charge density g-space grids:           0.9999999951

  Overlap energy of the core charge distribution:               0.00000126188387
  Self energy of the core charge distribution:              -2839.62839375007934
  Core Hamiltonian energy:                                    827.16884333927328
  Hartree energy:                                            1180.71157444502114
  Exchange-correlation energy:                               -271.13507186471077
  Dispersion energy:                                           -0.24778421491354

  Total energy:                                             -1103.13083078352543

  outer SCF iter =    1 RMS gradient =   0.90E-06 energy =      -1103.1308307835
  outer SCF loop converged in   1 iterations or    9 steps


 ENERGY| Total FORCE_EVAL ( QS ) energy [a.u.]:            -1103.130830801577986

 MD| ***************************************************************************
 MD| Step number                                                               5
 MD| Time [fs]                                                          2.500000
 MD| Conserved quantity [hartree]                            -0.110280102291E+04
 MD| ---------------------------------------------------------------------------
 MD|                                          Instantaneous             Averages
 MD| CPU time per MD step [s]                     88.920238           251.323935
 MD| Energy drift per atom [K]          -0.170094441240E+01  -0.938820883104E+00
 MD| Potential energy [hartree]         -0.110313083080E+04  -0.110310433635E+04
 MD| Kinetic energy [hartree]            0.311165720310E+00   0.286617325723E+00
 MD| Temperature [K]                             339.406721           312.630346
 MD| ***************************************************************************

 Number of electrons:                                                        512
 Number of occupied orbitals:                                                256
 Number of molecular orbitals:                                               256

 Number of orbital functions:                                               1477
 Number of independent orbital functions:                                   1477

 Extrapolation method: ASPC


 SCF WAVEFUNCTION OPTIMIZATION

  ----------------------------------- OT ---------------------------------------
  Minimizer      : DIIS                : direct inversion
                                         in the iterative subspace
                                         using   7 DIIS vectors
                                         safer DIIS on
  Preconditioner : FULL_SINGLE_INVERSE : inversion of 
                                         H + eS - 2*(Sc)(c^T*H*c+const)(Sc)^T
  Precond_solver : DEFAULT
  stepsize       :    0.08000000                  energy_gap     :    0.08000000
  eps_taylor     :   0.10000E-15                  max_taylor     :             4
  ----------------------------------- OT ---------------------------------------

  Step     Update method      Time    Convergence         Total energy    Change
  ------------------------------------------------------------------------------
     1 OT DIIS     0.80E-01   14.9     0.00021348     -1103.1357558331 -1.10E+03
     2 OT DIIS     0.80E-01    7.5     0.00011931     -1103.1367869862 -1.03E-03
     3 OT DIIS     0.80E-01    7.7     0.00005769     -1103.1372341846 -4.47E-04
     4 OT DIIS     0.80E-01    7.4     0.00003203     -1103.1373213358 -8.72E-05
     5 OT DIIS     0.80E-01    7.2     0.00002193     -1103.1373347736 -1.34E-05
     6 OT DIIS     0.80E-01    7.8     0.00000769     -1103.1373418553 -7.08E-06
     7 OT DIIS     0.80E-01    7.7     0.00000285     -1103.1373429015 -1.05E-06
     8 OT DIIS     0.80E-01    7.0     0.00000115     -1103.1373431085 -2.07E-07
     9 OT DIIS     0.80E-01    7.3     0.00000063     -1103.1373431414 -3.29E-08

  *** SCF run converged in     9 steps ***


  Electronic density on regular grids:       -511.9999999879        0.0000000121
  Core density on regular grids:              512.9999999832       -0.0000000168
  Total charge density on r-space grids:        0.9999999953
  Total charge density g-space grids:           0.9999999953

  Overlap energy of the core charge distribution:               0.00000109924599
  Self energy of the core charge distribution:              -2839.62839375007934
  Core Hamiltonian energy:                                    826.53391083148847
  Hartree energy:                                            1181.15444517292235
  Exchange-correlation energy:                               -270.94959431204649
  Dispersion energy:                                           -0.24771218292443

  Total energy:                                             -1103.13734314139333

  outer SCF iter =    1 RMS gradient =   0.63E-06 energy =      -1103.1373431414
  outer SCF loop converged in   1 iterations or    9 steps


 ENERGY| Total FORCE_EVAL ( QS ) energy [a.u.]:            -1103.137343149944854

 MD| ***************************************************************************
 MD| Step number                                                               6
 MD| Time [fs]                                                          3.000000
 MD| Conserved quantity [hartree]                            -0.110280103976E+04
 MD| ---------------------------------------------------------------------------
 MD|                                          Instantaneous             Averages
 MD| CPU time per MD step [s]                     89.294264           224.318990
 MD| Energy drift per atom [K]          -0.172851449934E+01  -0.107043648581E+01
 MD| Potential energy [hartree]         -0.110313734315E+04  -0.110310983748E+04
 MD| Kinetic energy [hartree]            0.336789277044E+00   0.294979317610E+00
 MD| Temperature [K]                             367.355839           321.751261
 MD| ***************************************************************************

 Number of electrons:                                                        512
 Number of occupied orbitals:                                                256
 Number of molecular orbitals:                                               256

 Number of orbital functions:                                               1477
 Number of independent orbital functions:                                   1477

 Extrapolation method: ASPC


 SCF WAVEFUNCTION OPTIMIZATION

  ----------------------------------- OT ---------------------------------------
  Minimizer      : DIIS                : direct inversion
                                         in the iterative subspace
                                         using   7 DIIS vectors
                                         safer DIIS on
  Preconditioner : FULL_SINGLE_INVERSE : inversion of 
                                         H + eS - 2*(Sc)(c^T*H*c+const)(Sc)^T
  Precond_solver : DEFAULT
  stepsize       :    0.08000000                  energy_gap     :    0.08000000
  eps_taylor     :   0.10000E-15                  max_taylor     :             4
  ----------------------------------- OT ---------------------------------------

  Step     Update method      Time    Convergence         Total energy    Change
  ------------------------------------------------------------------------------
     1 OT DIIS     0.80E-01   13.6     0.00021297     -1103.1365960802 -1.10E+03
     2 OT DIIS     0.80E-01    7.3     0.00011927     -1103.1376158739 -1.02E-03
     3 OT DIIS     0.80E-01    7.3     0.00006688     -1103.1380437589 -4.28E-04
     4 OT DIIS     0.80E-01    7.3     0.00004569     -1103.1381352379 -9.15E-05
     5 OT DIIS     0.80E-01    7.5     0.00001680     -1103.1381585208 -2.33E-05
     6 OT DIIS     0.80E-01    7.3     0.00000585     -1103.1381660934 -7.57E-06
     7 OT DIIS     0.80E-01    7.8     0.00000244     -1103.1381669428 -8.49E-07
     8 OT DIIS     0.80E-01    6.9     0.00000104     -1103.1381671009 -1.58E-07
     9 OT DIIS     0.80E-01    7.2     0.00000054     -1103.1381671280 -2.71E-08

  *** SCF run converged in     9 steps ***


  Electronic density on regular grids:       -511.9999999877        0.0000000123
  Core density on regular grids:              512.9999999831       -0.0000000169
  Total charge density on r-space grids:        0.9999999954
  Total charge density g-space grids:           0.9999999954

  Overlap energy of the core charge distribution:               0.00000101586875
  Self energy of the core charge distribution:              -2839.62839375007934
  Core Hamiltonian energy:                                    825.99992445669170
  Hartree energy:                                            1181.53048391142443
  Exchange-correlation energy:                               -270.79253371544496
  Dispersion energy:                                           -0.24764904646048

  Total energy:                                             -1103.13816712800008

  outer SCF iter =    1 RMS gradient =   0.54E-06 energy =      -1103.1381671280
  outer SCF loop converged in   1 iterations or    9 steps


 ENERGY| Total FORCE_EVAL ( QS ) energy [a.u.]:            -1103.138167134745572

 MD| ***************************************************************************
 MD| Step number                                                               7
 MD| Time [fs]                                                          3.500000
 MD| Conserved quantity [hartree]                            -0.110280089953E+04
 MD| ---------------------------------------------------------------------------
 MD|                                          Instantaneous             Averages
 MD| CPU time per MD step [s]                     87.275234           204.741310
 MD| Energy drift per atom [K]          -0.149907273534E+01  -0.113167023574E+01
 MD| Potential energy [hartree]         -0.110313816713E+04  -0.110311388457E+04
 MD| Kinetic energy [hartree]            0.334507099169E+00   0.300626143547E+00
 MD| Temperature [K]                             364.866534           327.910586
 MD| ***************************************************************************

 Number of electrons:                                                        512
 Number of occupied orbitals:                                                256
 Number of molecular orbitals:                                               256

 Number of orbital functions:                                               1477
 Number of independent orbital functions:                                   1477

 Extrapolation method: ASPC


 SCF WAVEFUNCTION OPTIMIZATION

  ----------------------------------- OT ---------------------------------------
  Minimizer      : DIIS                : direct inversion
                                         in the iterative subspace
                                         using   7 DIIS vectors
                                         safer DIIS on
  Preconditioner : FULL_SINGLE_INVERSE : inversion of 
                                         H + eS - 2*(Sc)(c^T*H*c+const)(Sc)^T
  Precond_solver : DEFAULT
  stepsize       :    0.08000000                  energy_gap     :    0.08000000
  eps_taylor     :   0.10000E-15                  max_taylor     :             4
  ----------------------------------- OT ---------------------------------------

  Step     Update method      Time    Convergence         Total energy    Change
  ------------------------------------------------------------------------------
     1 OT DIIS     0.80E-01   15.0     0.00021992     -1103.1335790514 -1.10E+03
     2 OT DIIS     0.80E-01    6.9     0.00012290     -1103.1346686033 -1.09E-03
     3 OT DIIS     0.80E-01    7.3     0.00005813     -1103.1351374111 -4.69E-04
     4 OT DIIS     0.80E-01    7.2     0.00002199     -1103.1352403607 -1.03E-04
     5 OT DIIS     0.80E-01    7.5     0.00001171     -1103.1352546342 -1.43E-05
     6 OT DIIS     0.80E-01    8.0     0.00000593     -1103.1352577389 -3.10E-06
     7 OT DIIS     0.80E-01    7.1     0.00000331     -1103.1352581891 -4.50E-07
     8 OT DIIS     0.80E-01    7.3     0.00000112     -1103.1352583582 -1.69E-07
     9 OT DIIS     0.80E-01    7.8     0.00000054     -1103.1352583878 -2.96E-08

  *** SCF run converged in     9 steps ***


  Electronic density on regular grids:       -511.9999999876        0.0000000124
  Core density on regular grids:              512.9999999832       -0.0000000168
  Total charge density on r-space grids:        0.9999999956
  Total charge density g-space grids:           0.9999999956

  Overlap energy of the core charge distribution:               0.00000098627264
  Self energy of the core charge distribution:              -2839.62839375007934
  Core Hamiltonian energy:                                    825.56074611348924
  Hartree energy:                                            1181.84174607620207
  Exchange-correlation energy:                               -270.66177760407925
  Dispersion energy:                                           -0.24758020957974

  Total energy:                                             -1103.13525838777491

  outer SCF iter =    1 RMS gradient =   0.54E-06 energy =      -1103.1352583878
  outer SCF loop converged in   1 iterations or    9 steps


 ENERGY| Total FORCE_EVAL ( QS ) energy [a.u.]:            -1103.135258395031315

 MD| ***************************************************************************
 MD| Step number                                                               8
 MD| Time [fs]                                                          4.000000
 MD| Conserved quantity [hartree]                            -0.110280068144E+04
 MD| ---------------------------------------------------------------------------
 MD|                                          Instantaneous             Averages
 MD| CPU time per MD step [s]                     88.875235           190.258051
 MD| Energy drift per atom [K]          -0.114224923905E+01  -0.113299261116E+01
 MD| Potential energy [hartree]         -0.110313525840E+04  -0.110311655630E+04
 MD| Kinetic energy [hartree]            0.325920485002E+00   0.303787936229E+00
 MD| Temperature [K]                             355.500609           331.359339
 MD| ***************************************************************************

 Number of electrons:                                                        512
 Number of occupied orbitals:                                                256
 Number of molecular orbitals:                                               256

 Number of orbital functions:                                               1477
 Number of independent orbital functions:                                   1477

 Extrapolation method: ASPC


 SCF WAVEFUNCTION OPTIMIZATION

  ----------------------------------- OT ---------------------------------------
  Minimizer      : DIIS                : direct inversion
                                         in the iterative subspace
                                         using   7 DIIS vectors
                                         safer DIIS on
  Preconditioner : FULL_SINGLE_INVERSE : inversion of 
                                         H + eS - 2*(Sc)(c^T*H*c+const)(Sc)^T
  Precond_solver : DEFAULT
  stepsize       :    0.08000000                  energy_gap     :    0.08000000
  eps_taylor     :   0.10000E-15                  max_taylor     :             4
  ----------------------------------- OT ---------------------------------------

  Step     Update method      Time    Convergence         Total energy    Change
  ------------------------------------------------------------------------------
     1 OT DIIS     0.80E-01   13.7     0.00022256     -1103.1294069065 -1.10E+03
     2 OT DIIS     0.80E-01    7.1     0.00012595     -1103.1305320163 -1.13E-03
     3 OT DIIS     0.80E-01    7.3     0.00006451     -1103.1310298520 -4.98E-04
     4 OT DIIS     0.80E-01    6.8     0.00003753     -1103.1311292496 -9.94E-05
     5 OT DIIS     0.80E-01    7.4     0.00001759     -1103.1311486029 -1.94E-05
     6 OT DIIS     0.80E-01    7.7     0.00000593     -1103.1311564151 -7.81E-06
     7 OT DIIS     0.80E-01    7.4     0.00000245     -1103.1311572522 -8.37E-07
     8 OT DIIS     0.80E-01    7.3     0.00000099     -1103.1311574216 -1.69E-07

  *** SCF run converged in     8 steps ***


  Electronic density on regular grids:       -511.9999999876        0.0000000124
  Core density on regular grids:              512.9999999831       -0.0000000169
  Total charge density on r-space grids:        0.9999999955
  Total charge density g-space grids:           0.9999999955

  Overlap energy of the core charge distribution:               0.00000100566681
  Self energy of the core charge distribution:              -2839.62839375007934
  Core Hamiltonian energy:                                    825.34592430203725
  Hartree energy:                                            1181.99589015381571
  Exchange-correlation energy:                               -270.59703336594055
  Dispersion energy:                                           -0.24754576708408

  Total energy:                                             -1103.13115742158402

  outer SCF iter =    1 RMS gradient =   0.99E-06 energy =      -1103.1311574216
  outer SCF loop converged in   1 iterations or    8 steps


 ENERGY| Total FORCE_EVAL ( QS ) energy [a.u.]:            -1103.131157449627835

 MD| ***************************************************************************
 MD| Step number                                                               9
 MD| Time [fs]                                                          4.500000
 MD| Conserved quantity [hartree]                            -0.110280051286E+04
 MD| ---------------------------------------------------------------------------
 MD|                                          Instantaneous             Averages
 MD| CPU time per MD step [s]                     79.358230           177.935849
 MD| Energy drift per atom [K]          -0.866430515434E+00  -0.110337460052E+01
 MD| Potential energy [hartree]         -0.110313115745E+04  -0.110311817865E+04
 MD| Kinetic energy [hartree]            0.320252193060E+00   0.305617298099E+00
 MD| Temperature [K]                             349.317870           333.354731
 MD| ***************************************************************************

 Number of electrons:                                                        512
 Number of occupied orbitals:                                                256
 Number of molecular orbitals:                                               256

 Number of orbital functions:                                               1477
 Number of independent orbital functions:                                   1477

 Extrapolation method: ASPC


 SCF WAVEFUNCTION OPTIMIZATION

  ----------------------------------- OT ---------------------------------------
  Minimizer      : DIIS                : direct inversion
                                         in the iterative subspace
                                         using   7 DIIS vectors
                                         safer DIIS on
  Preconditioner : FULL_SINGLE_INVERSE : inversion of 
                                         H + eS - 2*(Sc)(c^T*H*c+const)(Sc)^T
  Precond_solver : DEFAULT
  stepsize       :    0.08000000                  energy_gap     :    0.08000000
  eps_taylor     :   0.10000E-15                  max_taylor     :             4
  ----------------------------------- OT ---------------------------------------

  Step     Update method      Time    Convergence         Total energy    Change
  ------------------------------------------------------------------------------
     1 OT DIIS     0.80E-01   15.8     0.00022149     -1103.1269220242 -1.10E+03
     2 OT DIIS     0.80E-01    7.4     0.00012675     -1103.1280404895 -1.12E-03
     3 OT DIIS     0.80E-01    7.9     0.00006828     -1103.1285437935 -5.03E-04
     4 OT DIIS     0.80E-01    7.5     0.00003787     -1103.1286493966 -1.06E-04
     5 OT DIIS     0.80E-01    7.2     0.00001722     -1103.1286709403 -2.15E-05
     6 OT DIIS     0.80E-01    7.4     0.00000619     -1103.1286785998 -7.66E-06
     7 OT DIIS     0.80E-01    7.0     0.00000245     -1103.1286794836 -8.84E-07
     8 OT DIIS     0.80E-01    7.0     0.00000099     -1103.1286796582 -1.75E-07

  *** SCF run converged in     8 steps ***


  Electronic density on regular grids:       -511.9999999877        0.0000000123
  Core density on regular grids:              512.9999999832       -0.0000000168
  Total charge density on r-space grids:        0.9999999956
  Total charge density g-space grids:           0.9999999956

  Overlap energy of the core charge distribution:               0.00000102474095
  Self energy of the core charge distribution:              -2839.62839375007934
  Core Hamiltonian energy:                                    825.27969864300462
  Hartree energy:                                            1182.04398805239907
  Exchange-correlation energy:                               -270.57641308792154
  Dispersion energy:                                           -0.24756054039220

  Total energy:                                             -1103.12867965824853

  outer SCF iter =    1 RMS gradient =   0.99E-06 energy =      -1103.1286796582
  outer SCF loop converged in   1 iterations or    8 steps

  
  Eigenvalues of the occupied subspace spin            1
 ---------------------------------------------
      -0.96195263     -0.85427054     -0.85156980     -0.82062508
      -0.81346255     -0.80618491     -0.80577392     -0.80437046
      -0.80318044     -0.80219276     -0.80145617     -0.80022004
      -0.79544398     -0.79189830     -0.78987843     -0.78649159
      -0.78611584     -0.78493606     -0.78429288     -0.78241927
      -0.78121595     -0.78092605     -0.77861377     -0.77736284
      -0.77668772     -0.77602144     -0.77552193     -0.77423669
      -0.77384037     -0.77253577     -0.77181387     -0.77002191
      -0.76852468     -0.76743412     -0.76614001     -0.76496405
      -0.76458834     -0.76272993     -0.76266202     -0.76122151
      -0.76004126     -0.75912972     -0.75870532     -0.75701750
      -0.75677121     -0.75487814     -0.75459314     -0.75351535
      -0.75165867     -0.75055273     -0.75023714     -0.74797837
      -0.74774854     -0.74669594     -0.74529861     -0.74496199
      -0.74419979     -0.74247524     -0.74099568     -0.74020723
      -0.73997009     -0.73566578     -0.72524135     -0.71813415
      -0.47716407     -0.45628253     -0.39076325     -0.38463719
      -0.37862621     -0.37252044     -0.36336248     -0.36241714
      -0.35642707     -0.35530821     -0.35273557     -0.34992378
      -0.34613430     -0.34562436     -0.34489908     -0.34428828
      -0.34393129     -0.34217180     -0.34026987     -0.33958974
      -0.33936733     -0.33884697     -0.33799612     -0.33701033
      -0.33636580     -0.33588645     -0.33502496     -0.33335633
      -0.33117838     -0.33009523     -0.32977507     -0.32779724
      -0.32718780     -0.32622019     -0.32570286     -0.32501358
      -0.32317811     -0.32301863     -0.32277954     -0.32252142
      -0.32187218     -0.32132911     -0.32053853     -0.32015262
      -0.31813367     -0.31778011     -0.31608064     -0.31537693
      -0.31445287     -0.31302396     -0.31213938     -0.31131784
      -0.31022645     -0.30795862     -0.30687610     -0.30655664
      -0.30571681     -0.30431118     -0.30347281     -0.30261565
      -0.30175631     -0.30014482     -0.29660731     -0.29438313
      -0.29214494     -0.29023326     -0.28952900     -0.28262398
      -0.27349206     -0.25976171     -0.25659474     -0.25394921
      -0.25194880     -0.24879761     -0.24651799     -0.24576140
      -0.24250891     -0.23942173     -0.23716120     -0.23521541
      -0.23425247     -0.23276964     -0.23044589     -0.22944376
      -0.22776493     -0.22636209     -0.22630464     -0.22315970
      -0.22151892     -0.22114208     -0.21991971     -0.21814706
      -0.21689448     -0.21614898     -0.21420656     -0.21357849
      -0.21022456     -0.20863971     -0.20828628     -0.20732919
      -0.20562270     -0.20394854     -0.20196942     -0.19889572
      -0.19802125     -0.19684747     -0.19462790     -0.19345112
      -0.19207062     -0.18811805     -0.18777697     -0.18586483
      -0.18554927     -0.18458436     -0.18190293     -0.18015541
      -0.17872861     -0.17718500     -0.17706333     -0.17590608
      -0.17533886     -0.17324348     -0.17164038     -0.16992299
      -0.16827229     -0.16640103     -0.16450733     -0.16286769
      -0.16256967     -0.15887315     -0.15742960     -0.15046040
      -0.15024977     -0.14850954     -0.14804095     -0.14494945
      -0.14407255     -0.14323314     -0.14217536     -0.14087352
      -0.14014359     -0.13986512     -0.13886790     -0.13855686
      -0.13682002     -0.13606044     -0.13486895     -0.13309825
      -0.13235499     -0.13220531     -0.13092202     -0.12992337
      -0.12833126     -0.12809643     -0.12782738     -0.12630356
      -0.12528572     -0.12426460     -0.12292025     -0.12176124
      -0.12053017     -0.12010102     -0.11975017     -0.11846035
      -0.11797537     -0.11750456     -0.11717405     -0.11662142
      -0.11624828     -0.11592021     -0.11452786     -0.11402822
      -0.11326447     -0.11244395     -0.11196660     -0.11181145
      -0.10906335     -0.10810729     -0.10775212     -0.10630680
      -0.10408433     -0.10361205     -0.10332462     -0.10093014
      -0.10009550     -0.09924769     -0.09831255     -0.09725437
      -0.09088914     -0.08932263     -0.08839448     -0.08821770
 Fermi Energy [eV] :   -2.400526
  
  Lowest Eigenvalues of the unoccupied subspace spin            1
 -----------------------------------------------------
  Reached convergence in           71  iterations 
       0.03503978      0.08567234      0.10173632      0.11066409
  
 HOMO - LUMO gap [eV] :    3.354007

 ENERGY| Total FORCE_EVAL ( QS ) energy [a.u.]:            -1103.128679686974692

 MD| ***************************************************************************
 MD| Step number                                                              10
 MD| Time [fs]                                                          5.000000
 MD| Conserved quantity [hartree]                            -0.110280042703E+04
 MD| ---------------------------------------------------------------------------
 MD|                                          Instantaneous             Averages
 MD| CPU time per MD step [s]                    421.411162           202.283380
 MD| Energy drift per atom [K]          -0.726004415964E+00  -0.106563758206E+01
 MD| Potential energy [hartree]         -0.110312867969E+04  -0.110311922875E+04
 MD| Kinetic energy [hartree]            0.310728951934E+00   0.306128463483E+00
 MD| Temperature [K]                             338.930312           333.912289
 MD| ***************************************************************************

 Number of electrons:                                                        512
 Number of occupied orbitals:                                                256
 Number of molecular orbitals:                                               256

 Number of orbital functions:                                               1477
 Number of independent orbital functions:                                   1477

 Extrapolation method: ASPC


 SCF WAVEFUNCTION OPTIMIZATION

  ----------------------------------- OT ---------------------------------------
  Minimizer      : DIIS                : direct inversion
                                         in the iterative subspace
                                         using   7 DIIS vectors
                                         safer DIIS on
  Preconditioner : FULL_SINGLE_INVERSE : inversion of 
                                         H + eS - 2*(Sc)(c^T*H*c+const)(Sc)^T
  Precond_solver : DEFAULT
  stepsize       :    0.08000000                  energy_gap     :    0.08000000
  eps_taylor     :   0.10000E-15                  max_taylor     :             4
  ----------------------------------- OT ---------------------------------------

  Step     Update method      Time    Convergence         Total energy    Change
  ------------------------------------------------------------------------------
     1 OT DIIS     0.80E-01   15.2     0.00022335     -1103.1307419466 -1.10E+03
     2 OT DIIS     0.80E-01    7.1     0.00012561     -1103.1318778574 -1.14E-03
     3 OT DIIS     0.80E-01    7.6     0.00005417     -1103.1323942574 -5.16E-04
     4 OT DIIS     0.80E-01    7.8     0.00002189     -1103.1324912440 -9.70E-05
     5 OT DIIS     0.80E-01    7.6     0.00001574     -1103.1325047869 -1.35E-05
     6 OT DIIS     0.80E-01    7.1     0.00000499     -1103.1325083749 -3.59E-06
     7 OT DIIS     0.80E-01    7.4     0.00000204     -1103.1325089350 -5.60E-07
     8 OT DIIS     0.80E-01    6.7     0.00000086     -1103.1325090436 -1.09E-07

  *** SCF run converged in     8 steps ***


  Electronic density on regular grids:       -511.9999999877        0.0000000123
  Core density on regular grids:              512.9999999832       -0.0000000168
  Total charge density on r-space grids:        0.9999999954
  Total charge density g-space grids:           0.9999999954

  Overlap energy of the core charge distribution:               0.00000102191647
  Self energy of the core charge distribution:              -2839.62839375007934
  Core Hamiltonian energy:                                    825.36185150882079
  Hartree energy:                                            1181.98360367919759
  Exchange-correlation energy:                               -270.60196721050966
  Dispersion energy:                                           -0.24760429290866

  Total energy:                                             -1103.13250904356278

  outer SCF iter =    1 RMS gradient =   0.86E-06 energy =      -1103.1325090436
  outer SCF loop converged in   1 iterations or    8 steps


 ENERGY| Total FORCE_EVAL ( QS ) energy [a.u.]:            -1103.132509064027545

 MD| ***************************************************************************
 MD| Step number                                                              11
 MD| Time [fs]                                                          5.500000
 MD| Conserved quantity [hartree]                            -0.110280051401E+04
 MD| ---------------------------------------------------------------------------
 MD|                                          Instantaneous             Averages
 MD| CPU time per MD step [s]                     81.642235           191.316003
 MD| Energy drift per atom [K]          -0.868309034675E+00  -0.104769862321E+01
 MD| Potential energy [hartree]         -0.110313250906E+04  -0.110312043606E+04
 MD| Kinetic energy [hartree]            0.327238335125E+00   0.308047542723E+00
 MD| Temperature [K]                             356.938066           336.005542
 MD| ***************************************************************************

 Number of electrons:                                                        512
 Number of occupied orbitals:                                                256
 Number of molecular orbitals:                                               256

 Number of orbital functions:                                               1477
 Number of independent orbital functions:                                   1477

 Extrapolation method: ASPC


 SCF WAVEFUNCTION OPTIMIZATION

  ----------------------------------- OT ---------------------------------------
  Minimizer      : DIIS                : direct inversion
                                         in the iterative subspace
                                         using   7 DIIS vectors
                                         safer DIIS on
  Preconditioner : FULL_SINGLE_INVERSE : inversion of 
                                         H + eS - 2*(Sc)(c^T*H*c+const)(Sc)^T
  Precond_solver : DEFAULT
  stepsize       :    0.08000000                  energy_gap     :    0.08000000
  eps_taylor     :   0.10000E-15                  max_taylor     :             4
  ----------------------------------- OT ---------------------------------------

  Step     Update method      Time    Convergence         Total energy    Change
  ------------------------------------------------------------------------------
     1 OT DIIS     0.80E-01   13.1     0.00022990     -1103.1349872815 -1.10E+03
     2 OT DIIS     0.80E-01    7.5     0.00012847     -1103.1361835828 -1.20E-03
     3 OT DIIS     0.80E-01    7.4     0.00005766     -1103.1367113466 -5.28E-04
     4 OT DIIS     0.80E-01    7.6     0.00002622     -1103.1368158765 -1.05E-04
     5 OT DIIS     0.80E-01    7.4     0.00001805     -1103.1368290322 -1.32E-05
     6 OT DIIS     0.80E-01    7.4     0.00000466     -1103.1368352463 -6.21E-06
     7 OT DIIS     0.80E-01    7.8     0.00000194     -1103.1368358742 -6.28E-07
     8 OT DIIS     0.80E-01    7.0     0.00000077     -1103.1368359871 -1.13E-07

  *** SCF run converged in     8 steps ***


  Electronic density on regular grids:       -511.9999999877        0.0000000123
  Core density on regular grids:              512.9999999832       -0.0000000168
  Total charge density on r-space grids:        0.9999999954
  Total charge density g-space grids:           0.9999999954

  Overlap energy of the core charge distribution:               0.00000101699125
  Self energy of the core charge distribution:              -2839.62839375007934
  Core Hamiltonian energy:                                    825.48760120625252
  Hartree energy:                                            1181.89249623163778
  Exchange-correlation energy:                               -270.64088399646784
  Dispersion energy:                                           -0.24765669546995

  Total energy:                                             -1103.13683598713578

  outer SCF iter =    1 RMS gradient =   0.77E-06 energy =      -1103.1368359871
  outer SCF loop converged in   1 iterations or    8 steps


 ENERGY| Total FORCE_EVAL ( QS ) energy [a.u.]:            -1103.136836005552823

 MD| ***************************************************************************
 MD| Step number                                                              12
 MD| Time [fs]                                                          6.000000
 MD| Conserved quantity [hartree]                            -0.110280063532E+04
 MD| ---------------------------------------------------------------------------
 MD|                                          Instantaneous             Averages
 MD| CPU time per MD step [s]                     80.133229           182.050772
 MD| Energy drift per atom [K]          -0.106679637993E+01  -0.104929010294E+01
 MD| Potential energy [hartree]         -0.110313683601E+04  -0.110312180272E+04
 MD| Kinetic energy [hartree]            0.327535269683E+00   0.309671519970E+00
 MD| Temperature [K]                             357.261950           337.776909
 MD| ***************************************************************************

 Number of electrons:                                                        512
 Number of occupied orbitals:                                                256
 Number of molecular orbitals:                                               256

 Number of orbital functions:                                               1477
 Number of independent orbital functions:                                   1477

 Extrapolation method: ASPC


 SCF WAVEFUNCTION OPTIMIZATION

  ----------------------------------- OT ---------------------------------------
  Minimizer      : DIIS                : direct inversion
[...]
  ------------------------------------------------------------------------------
     1 OT DIIS     0.80E-01   12.8     0.00023170     -1103.1988778912 -1.10E+03
     2 OT DIIS     0.80E-01    7.0     0.00013111     -1103.2001060040 -1.23E-03
     3 OT DIIS     0.80E-01    6.9     0.00005449     -1103.2006783578 -5.72E-04
     4 OT DIIS     0.80E-01    7.0     0.00002031     -1103.2007807464 -1.02E-04
     5 OT DIIS     0.80E-01    6.8     0.00000659     -1103.2007963536 -1.56E-05
     6 OT DIIS     0.80E-01    7.3     0.00000257     -1103.2007977922 -1.44E-06
     7 OT DIIS     0.80E-01    7.1     0.00000097     -1103.2007980180 -2.26E-07

  *** SCF run converged in     7 steps ***


  Electronic density on regular grids:       -511.9999999891        0.0000000109
  Core density on regular grids:              512.9999999831       -0.0000000169
  Total charge density on r-space grids:        0.9999999940
  Total charge density g-space grids:           0.9999999940

  Overlap energy of the core charge distribution:               0.00000138474756
  Self energy of the core charge distribution:              -2839.62839375007934
  Core Hamiltonian energy:                                    827.82827979015792
  Hartree energy:                                            1180.18340268700922
  Exchange-correlation energy:                               -271.33635667796545
  Dispersion energy:                                           -0.24773145184104

  Total energy:                                             -1103.20079801797101

  outer SCF iter =    1 RMS gradient =   0.97E-06 energy =      -1103.2007980180
  outer SCF loop converged in   1 iterations or    7 steps


 ENERGY| Total FORCE_EVAL ( QS ) energy [a.u.]:            -1103.200798051177571

 MD| ***************************************************************************
 MD| Step number                                                             162
 MD| Time [fs]                                                         81.000000
 MD| Conserved quantity [hartree]                            -0.110280070838E+04
 MD| ---------------------------------------------------------------------------
 MD|                                          Instantaneous             Averages
 MD| CPU time per MD step [s]                     68.943208           133.125021
 MD| Energy drift per atom [K]          -0.118633615339E+01  -0.131455239232E+01
 MD| Potential energy [hartree]         -0.110320079805E+04  -0.110317639939E+04
 MD| Kinetic energy [hartree]            0.268133265778E+00   0.295830206498E+00
 MD| Temperature [K]                             292.468696           322.679376
 MD| ***************************************************************************

 Number of electrons:                                                        512
 Number of occupied orbitals:                                                256
 Number of molecular orbitals:                                               256

 Number of orbital functions:                                               1477
 Number of independent orbital functions:                                   1477

 Extrapolation method: ASPC


 SCF WAVEFUNCTION OPTIMIZATION

  ----------------------------------- OT ---------------------------------------
  Minimizer      : DIIS                : direct inversion
                                         in the iterative subspace
                                         using   7 DIIS vectors
                                         safer DIIS on
  Preconditioner : FULL_SINGLE_INVERSE : inversion of 
                                         H + eS - 2*(Sc)(c^T*H*c+const)(Sc)^T
  Precond_solver : DEFAULT
  stepsize       :    0.08000000                  energy_gap     :    0.08000000
  eps_taylor     :   0.10000E-15                  max_taylor     :             4
  ----------------------------------- OT ---------------------------------------

  Step     Update method      Time    Convergence         Total energy    Change
  ------------------------------------------------------------------------------
     1 OT DIIS     0.80E-01   15.2     0.00022925     -1103.1937242951 -1.10E+03
     2 OT DIIS     0.80E-01    7.2     0.00012953     -1103.1949309531 -1.21E-03

 *** SCF run terminated - exceeded requested execution time:   21600.000 seconds.

 *** Execution time now:    21600.054 seconds.

  Leaving inner SCF loop after reaching     2 steps.


  Electronic density on regular grids:       -511.9999999892        0.0000000108
  Core density on regular grids:              512.9999999831       -0.0000000169
  Total charge density on r-space grids:        0.9999999940
  Total charge density g-space grids:           0.9999999940

  Overlap energy of the core charge distribution:               0.00000141654850
  Self energy of the core charge distribution:              -2839.62839375007934
  Core Hamiltonian energy:                                    827.87842436178653
  Hartree energy:                                            1180.15439365822363
  Exchange-correlation energy:                               -271.35158821115346
  Dispersion energy:                                           -0.24776842844243

  Total energy:                                             -1103.19493095311668

  outer SCF iter =    1 RMS gradient =   0.13E-03 energy =      -1103.1949309531
  outer SCF loop FAILED to converge after    1 iterations or    2 steps


 *** WARNING in qs_scf.F:576 :: SCF run NOT converged ***


 ENERGY| Total FORCE_EVAL ( QS ) energy [a.u.]:            -1103.195496565055237

 *** MD run terminated - exceeded requested execution time:   21600.000 seconds.

 *** Execution time now:    21606.348 seconds.

 -------------------------------------------------------------------------------
 -                                                                             -
 -                                DBCSR STATISTICS                             -
 -                                                                             -
 -------------------------------------------------------------------------------
 COUNTER                                    TOTAL       BLAS       SMM       ACC
 flops     4 x     4 x     4              1142912       0.0%    100.0%      0.0%
 flops     4 x     4 x   224             25009152       0.0%    100.0%      0.0%
 flops     4 x     4 x   240             26795520       0.0%    100.0%      0.0%
 flops   128 x     4 x    36             33288192       0.0%    100.0%      0.0%
 flops   132 x     4 x    36             34328448       0.0%    100.0%      0.0%
 flops     4 x     4 x   248             55377408       0.0%    100.0%      0.0%
 flops   132 x     4 x    32             91542528       0.0%    100.0%      0.0%
 flops   128 x     4 x    32            102662144       0.0%    100.0%      0.0%
 flops   128 x    36 x   224            109412352       0.0%    100.0%      0.0%
 flops   132 x    36 x   224            112831488       0.0%    100.0%      0.0%
 flops   128 x    36 x   240            117227520       0.0%    100.0%      0.0%
 flops   132 x    36 x   240            120890880       0.0%    100.0%      0.0%
 flops   132 x     4 x    64            122056704       0.0%    100.0%      0.0%
 flops   736 x     4 x     4            126803968       0.0%    100.0%      0.0%
 flops   741 x     4 x     4            127665408       0.0%    100.0%      0.0%
 flops   128 x     4 x    64            132251648       0.0%    100.0%      0.0%
 flops   736 x     4 x    36            191407104       0.0%    100.0%      0.0%
 flops   741 x     4 x    36            192707424       0.0%    100.0%      0.0%
 flops   132 x     4 x   224            213599232       0.0%    100.0%      0.0%
 flops   132 x     4 x   240            228856320       0.0%    100.0%      0.0%
 flops   128 x     4 x   224            231440384       0.0%    100.0%      0.0%
 flops   128 x    36 x   248            242270208       0.0%    100.0%      0.0%
 flops   128 x     4 x   240            247971840       0.0%    100.0%      0.0%
 flops   132 x    36 x   248            249841152       0.0%    100.0%      0.0%
 flops   132 x    32 x   224            300883968       0.0%    100.0%      0.0%
 flops   132 x    32 x   240            322375680       0.0%    100.0%      0.0%
 flops   132 x    64 x   224            401178624       0.0%    100.0%      0.0%
 flops   132 x    64 x   240            429834240       0.0%    100.0%      0.0%
 flops   132 x     4 x   248            472969728       0.0%    100.0%      0.0%
 flops   128 x     4 x   248            512475136       0.0%    100.0%      0.0%
 flops   736 x     4 x    32            550363136       0.0%    100.0%      0.0%
 flops   741 x     4 x    32            554102016       0.0%    100.0%      0.0%
 flops   736 x    36 x   224            629121024       0.0%    100.0%      0.0%
 flops   741 x    36 x   224            633394944       0.0%    100.0%      0.0%
 flops   132 x    32 x   248            666243072       0.0%    100.0%      0.0%
 flops   736 x    36 x   240            674058240       0.0%    100.0%      0.0%
 flops   741 x    36 x   240            678637440       0.0%    100.0%      0.0%
 flops   736 x     4 x    64            720502784       0.0%    100.0%      0.0%
 flops   741 x     4 x    64            725397504       0.0%    100.0%      0.0%
 flops   132 x    64 x   248            888324096       0.0%    100.0%      0.0%
 flops   736 x     4 x   224           1190977536       0.0%    100.0%      0.0%
 flops   741 x     4 x   224           1199068416       0.0%    100.0%      0.0%
 flops   736 x     4 x   240           1276047360       0.0%    100.0%      0.0%
 flops   741 x     4 x   240           1284716160       0.0%    100.0%      0.0%
 flops   736 x    36 x   248           1393053696       0.0%    100.0%      0.0%
 flops   741 x    36 x   248           1402517376       0.0%    100.0%      0.0%
 flops   736 x     4 x   248           2637164544       0.0%    100.0%      0.0%
 flops   741 x     4 x   248           2655080064       0.0%    100.0%      0.0%
 flops    32 x    32 x   224           2724986880       0.0%    100.0%      0.0%
 flops    32 x    32 x   240           2919628800       0.0%    100.0%      0.0%
 flops    32 x    32 x   248           6033899520       0.0%    100.0%      0.0%
 flops     5 x     4 x     5          11007889200       0.0%    100.0%      0.0%
 flops    13 x     4 x     5          13963839240       0.0%    100.0%      0.0%
 flops     5 x     4 x    13          13963839240       0.0%    100.0%      0.0%
 flops     5 x    32 x    32          15693004800       0.0%    100.0%      0.0%
 flops    13 x     4 x    13          17631421184       0.0%    100.0%      0.0%
 flops    13 x    32 x    32          20242759680       0.0%    100.0%      0.0%
 flops   128 x    64 x    64          60448309248       0.0%    100.0%      0.0%
 flops   128 x    64 x    32          60448309248       0.0%    100.0%      0.0%
 flops   128 x    32 x    32          60448309248       0.0%    100.0%      0.0%
 flops   128 x    32 x    64          60448309248       0.0%    100.0%      0.0%
 flops   736 x    32 x   224          63170609152       0.0%    100.0%      0.0%
 flops   741 x    32 x   224          63599757312       0.0%    100.0%      0.0%
 flops   736 x    64 x   224          63729827840       0.0%    100.0%      0.0%
 flops   741 x    64 x   224          64162775040       0.0%    100.0%      0.0%
 flops   736 x    32 x   240          67682795520       0.0%    100.0%      0.0%
 flops   741 x    32 x   240          68142597120       0.0%    100.0%      0.0%
 flops   736 x    64 x   240          68281958400       0.0%    100.0%      0.0%
 flops   741 x    64 x   240          68745830400       0.0%    100.0%      0.0%
 flops   128 x    32 x   224          74514169856       0.0%    100.0%      0.0%
 flops   128 x    64 x   224          74611425280       0.0%    100.0%      0.0%
 flops   128 x    32 x   240          79836610560       0.0%    100.0%      0.0%
 flops   128 x    64 x   240          79940812800       0.0%    100.0%      0.0%
 flops     5 x     5 x    64          87747315200       0.0%    100.0%      0.0%
 flops     5 x     5 x    32          87747315200       0.0%    100.0%      0.0%
 flops     5 x    13 x    64         110550901760       0.0%    100.0%      0.0%
 flops     5 x    13 x    32         110550901760       0.0%    100.0%      0.0%
 flops    13 x     5 x    64         110561285120       0.0%    100.0%      0.0%
 flops    13 x     5 x    32         110561285120       0.0%    100.0%      0.0%
 flops   736 x    32 x   248         139877777408       0.0%    100.0%      0.0%
 flops   741 x    32 x   248         140828034048       0.0%    100.0%      0.0%
 flops   736 x    64 x   248         141116047360       0.0%    100.0%      0.0%
 flops   741 x    64 x   248         142074716160       0.0%    100.0%      0.0%
 flops    13 x    13 x    64         142336440064       0.0%    100.0%      0.0%
 flops    13 x    13 x    32         142336440064       0.0%    100.0%      0.0%
 flops   736 x    32 x    32         147838730240       0.0%    100.0%      0.0%
 flops   736 x    32 x    64         147838730240       0.0%    100.0%      0.0%
 flops   736 x    64 x    32         147838730240       0.0%    100.0%      0.0%
 flops   736 x    64 x    64         147838730240       0.0%    100.0%      0.0%
 flops   741 x    64 x    64         148843069440       0.0%    100.0%      0.0%
 flops   741 x    64 x    32         148843069440       0.0%    100.0%      0.0%
 flops   741 x    32 x    32         148843069440       0.0%    100.0%      0.0%
 flops   741 x    32 x    64         148843069440       0.0%    100.0%      0.0%
 flops   128 x    32 x   248         164995661824       0.0%    100.0%      0.0%
 flops   128 x    64 x   248         165211013120       0.0%    100.0%      0.0%
 flops     5 x    32 x     5         796132838400       0.0%    100.0%      0.0%
 flops    13 x    32 x     5        1009851681280       0.0%    100.0%      0.0%
 flops     5 x    32 x    13        1009851681280       0.0%    100.0%      0.0%
 flops    13 x    32 x    13        1274701595648       0.0%    100.0%      0.0%
 flops inhomo. stacks                970106818560     100.0%      0.0%      0.0%
 flops total                         9.251596E+12      10.5%     89.5%      0.0%
 flops max/rank                      1.152830E+12      10.8%     89.2%      0.0%
 matmuls inhomo. stacks                    185150     100.0%      0.0%      0.0%
 matmuls total                         1408311369       0.0%    100.0%      0.0%
 number of processed stacks               4059419       4.4%     95.6%      0.0%
 average stack size                                     1.0     362.7       0.0
 marketing flops                    10.915832E+12
 -------------------------------------------------------------------------------
 # multiplications                          51849
 max memory usage/rank             571.109376E+06
 # max total images/rank                        3
 # max 3D layers                                1
 # MPI messages exchanged                 4977504
 MPI messages size (bytes):
  total size                         1.116150E+12
  min size                           0.000000E+00
  max size                           1.564992E+06
  average size                     224.238844E+03
 MPI breakdown and total messages size (bytes):
             size <=      128             1783084                  7553408
       128 < size <=     8192              360353               2817237920
      8192 < size <=    32768              654536              16768295424
     32768 < size <=   131072              620879              46958066624
    131072 < size <=  4194304             1558652            1049742842936
   4194304 < size <= 16777216                   0                        0
  16777216 < size                               0                        0
 -------------------------------------------------------------------------------

 *** WARNING in dbcsr_mm.F:294 :: Using a non-square number of MPI ranks ***
 *** might lead to poor performance. Used ranks: 12 Suggested: 9 25      ***

 -------------------------------------------------------------------------------
 -                                                                             -
 -                      DBCSR MESSAGE PASSING PERFORMANCE                      -
 -                                                                             -
 -------------------------------------------------------------------------------
 ROUTINE             CALLS      AVE VOLUME [Bytes]
 MP_Bcast              100                     12.
 MP_Allreduce       262692                      8.
 MP_Alltoall        203751                  45348.
 MP_ISend          1123998                  97833.
 MP_IRecv          1110042                  96266.
 -------------------------------------------------------------------------------

 -------------------------------------------------------------------------------
 -                                                                             -
 -                                GRID STATISTICS                              -
 -                                                                             -
 -------------------------------------------------------------------------------
 LP    KERNEL    OPERATION                                     COUNT     PERCENT
 0     general   collocate                                    379824       0.12%
 0     ortho     integrate                                  44944809      14.18%
 0     ortho     collocate                                  50649917      15.98%
 1     general   integrate                                    379824       0.12%
 1     ortho     integrate                                  60673765      19.14%
 1     ortho     collocate                                  68376090      21.57%
 2     ortho     integrate                                  28947786       9.13%
 2     ortho     collocate                                  32622045      10.29%
 3     ortho     integrate                                  11136215       3.51%
 3     ortho     collocate                                   6120873       1.93%
 4     ortho     integrate                                   8015659       2.53%
 4     ortho     collocate                                    353089       0.11%
 5     ortho     integrate                                   3674259       1.16%
 6     ortho     integrate                                    689766       0.22%
 7     ortho     integrate                                     39755       0.01%
 -------------------------------------------------------------------------------

 MEMORY| Estimated peak process memory [MiB]                                 543

 -------------------------------------------------------------------------------
 -                                                                             -
 -                         MESSAGE PASSING PERFORMANCE                         -
 -                                                                             -
 -------------------------------------------------------------------------------

 ROUTINE             CALLS      AVE VOLUME [Bytes]
 MP_Group                4
 MP_Bcast            46922                   7454.
 MP_Allreduce       125824                   2115.
 MP_Sync              1515
 MP_Alltoall         29960               10597845.
 MP_SendRecv          7216                   4398.
 MP_ISendRecv        96096                 218880.
 MP_Wait            157656
 MP_comm_split        1511
 MP_ISend            51840                 503475.
 MP_IRecv            51840                 503475.
 -------------------------------------------------------------------------------

slurmstepd: error: *** JOB 53858882 ON cm016 CANCELLED AT 2024-11-21T19:31:41 DUE TO TIME LIMIT ***
