     193
 i =        0, time =        0.000, E =     -1103.0750212125
  O         3.8585873763       -4.7533175213        5.5091974759
  H         4.2109950951       -5.5568705259        5.9994585948
  H         3.0947084560       -4.3172663108        5.9135950646
  O        -3.5460761891        1.7456237131        4.2880212708
  H        -3.3572582677        0.8369944362        4.1529456220
  H        -3.6089143450        1.9436976972        5.2698392012
  O         4.5691359319        2.9343274990       -7.0999718127
  H         3.6785962350        3.2291072409       -6.8049831901
  H         4.4953665356        2.7845914189       -8.0458027314
  O        -2.5731801314       -0.1063102257       -3.4147140374
  H        -2.0386687011        0.4155234251       -2.8289645480
  H        -1.8891606976       -0.6148201666       -3.9280631618
  O        -3.7625034284       -7.7105940327        5.6279977389
  H        -4.6343536576       -7.4199803039        5.9874790347
  H        -3.8520633915       -7.6348492192        4.6607806353
  O        -6.7131259426       -0.0759204976        2.3176844292
  H        -6.0415850051       -0.4560400697        3.0079983076
  H        -6.2582643134        0.7343068494        1.9582947358
  O         4.0109535867       -5.5817692668       -0.4126912859
  H         3.3321311866       -5.6166906662        0.3076935926
  H         3.9051538355       -4.7533442556       -0.8369521875
  O        -2.6692626967       -3.0810510613       -1.2259349448
  H        -3.2486322997       -2.4491708867       -1.7386930105
  H        -2.1918958173       -2.5988518360       -0.5763067756
  O         5.4576244064       -3.1688044689        3.1002596795
  H         4.6854987571       -3.2457995297        3.6224179934
  H         5.2579372917       -3.0507495002        2.1311396222
  O         2.0078792352        3.8025888294       -6.6441198936
  H         1.3809036112        3.0702729257       -6.8038689306
  H         1.8366067800        4.0666291804       -5.7099975874
  O         4.0608830110       -3.8929207302       -3.0596772434
  H         3.2332712864       -3.7206669725       -3.6953758544
  H         4.3366899606       -2.9825098616       -2.9848217710
  O         1.9773593054       -1.8442291306        1.0225667179
  H         1.5650644885       -2.4713604568        1.6495937537
  H         1.6194813185       -1.9133123969        0.0656946095
  O         0.7338447631       -5.7432877136       -5.0100685957
  H         1.4795768454       -6.3299226862       -4.8189325814
  H         0.4491149358       -5.7095685669       -5.9473559749
  O        -7.5166459589       -8.6781062088       -3.2371569882
  H        -7.8737663294       -9.6027219294       -3.0814153209
  H        -7.1323941392       -8.5788960418       -2.3467663280
  O         3.0089956358       -1.6206934676        5.1704516391
  H         3.8547864750       -1.8022862145        5.6866350548
  H         3.1700832113       -0.8185381416        4.6102432456
  O        -0.0943492744        1.8634710749       -6.6861347029
  H         0.2389831969        1.0552334471       -6.3170377387
  H        -0.0534604238        1.7370469556       -7.6527831571
  O         1.3803001006       -3.0815472275        3.6598466091
  H         2.0052752091       -2.6793618758        4.3169228939
  H         1.0973942250       -3.9666380514        3.9813401483
  O        -2.3279129364        2.8060791527        2.2347417439
  H        -1.6230445751        2.1315230876        2.1866163236
  H        -2.7609234795        2.5819568350        3.0889511952
  O         0.8745131234       -0.6611187482       -5.6004046460
  H         1.7204015713       -0.8189656405       -6.1098612966
  H         1.1964117837       -0.2405057963       -4.7549061774
  O        -1.1866462102       -0.7164030048        0.2437849238
  H        -1.1340006348        0.2325710411       -0.0726156939
  H        -0.9335438317       -0.7854778370        1.2011335414
  H        -0.1866462102       -0.7164030048        0.2437849238
  O        -3.8861935106       -9.0129285534       -3.1318571683
  H        -4.4983492231       -8.2801255892       -3.2160220896
  H        -2.9183857578       -8.7301395642       -3.1224505015
  O         4.9784414381        4.5574106629        2.1605978288
  H         4.5742506248        4.0690251974        1.4375040342
  H         4.2106782789        4.9079438424        2.6736093641
  O         4.2074812608        1.0294752439       -3.2134938111
  H         4.6250866171        0.8524308220       -4.0648666086
  H         4.4221519308        0.1920392568       -2.7364360799
  O        -5.2106345443       -6.3463699492       -2.6806456410
  H        -5.3801630197       -6.0861826108       -1.7737611737
  H        -5.9985546753       -6.0894306119       -3.1521879087
  O         4.8272006144       -2.1493089974        0.6957555837
  H         5.1698114049       -1.3843105780        1.1680731517
  H         3.8731403616       -2.0152767607        0.7901517878
  O         2.1084974235        0.9406557281        1.6964699575
  H         2.7635704789        1.5106519967        1.2582480434
  H         2.3138417141        0.0791504768        1.2943222699
  O        -5.7579045611       -5.0935991816       -0.3613728277
  H        -6.6922016300       -5.4438912590       -0.2434456391
  H        -5.9339541154       -4.1852263482       -0.6893230982
  O        -4.8501183696        4.6347512586        2.6323657871
  H        -5.8186923573        4.7291496971        2.3648078237
  H        -4.7686962808        3.6685062675        2.2489112658
  O         5.5123889390        0.8523825517       -5.5927914459
  H         6.4009274201        1.1961666201       -5.3454982775
  H         5.0326268549        1.4571097750       -6.2820870000
  O         0.7365184732       -1.9176950430       -1.2724577473
  H         0.4366627686       -2.6685959517       -1.8452499204
  H        -0.0280723827       -1.6346960324       -0.7323636982
  O         3.9005939808        2.6221972296        0.0824981180
  H         4.6603628952        2.4136405159       -0.4885023274
  H         3.3619307241        3.2465911837       -0.4599512808
  O        -1.0991624885       -1.3693412589        2.9498880034
  H        -0.3354058556       -2.0369012425        3.1075024163
  H        -1.8473458549       -1.9916364646        3.2032143743
  O         2.0718451094       -5.6501678174        1.3629079156
  H         1.2043618452       -6.1369822674        1.2560686630
  H         2.4507495844       -5.8859092245        2.2558212721
  O        -0.6280310316       -3.8273493362       -2.8460859716
  H        -1.5583639221       -3.7769636412       -2.5811140145
  H        -0.5112292363       -4.5879523025       -3.3982225959
  O        -5.2918433010        2.0621670074        1.4353011132
  H        -4.4549447831        1.8776050679        1.9014549175
  H        -5.1335936869        1.9198214761        0.4197228743
  O         1.9599719653       -3.4245632717       -5.2673604360
  H         1.3225562775       -4.2123092010       -5.0388832852
  H         1.2999292168       -2.7711468268       -5.4986783863
  O        -1.1933205846        3.9368513830       -3.3737465077
  H        -1.2003012694        3.9803649971       -4.3582935942
  H        -0.7402505311        4.6500956055       -2.9405594580
  O        -5.4243979802       -5.0029807582        4.2784625506
  H        -6.1164034705       -4.5127003053        3.7817315683
  H        -4.7403199519       -5.3498607764        3.6920944114
  O         2.9732984993        5.7937546317        3.6041830736
  H         3.4176710045        6.4726708296        4.1695014822
  H         2.4485201643        5.2041088060        4.2250869218
  O        -4.0511295134        1.5445925671       -5.0626498585
  H        -3.5387103609        0.7974835831       -4.6210546124
  H        -4.0333821170        2.3518494025       -4.4301366268
  O         3.4847726839        0.5997692637        4.0091486817
  H         2.7896502362        0.5375110591        3.2686671028
  H         4.3189983631        0.4153324309        3.4395276451
  O        -4.6207476869       -1.0117618538        4.0048952776
  H        -5.3477593066       -1.2443059233        4.6253237945
  H        -4.2163881176       -1.8844792105        3.8428058821
  O        -0.2165387154        1.2751467697        3.1167167744
  H         0.6371782887        1.4136801810        2.7286969429
  H        -0.3894124526        0.3225841245        3.0508790291
  O        -1.9915351632        5.0697083632        0.6000194332
  H        -2.3376502958        4.2340876605        1.0013898546
  H        -2.6520248188        5.7471163392        0.8506616742
  O        -1.3075474036       -1.8956122645       -4.9542920356
  H        -0.8701251561       -2.4028189929       -4.2563741889
  H        -0.5949693850       -1.3532124979       -5.4532434800
  O        -5.1373452268        1.8062068789       -1.2867681226
  H        -4.6981592560        2.4597481938       -1.8505668997
  H        -5.4245526684        1.1256927260       -1.8633945543
  O        -7.3836561358       -1.2119873462       -1.9506599575
  H        -6.4212881329       -1.0371432188       -2.1463799566
  H        -7.4808782211       -1.5310477918       -1.0339482458
  O        -0.4639445925        1.4048471789       -1.7228637494
  H        -0.7867348868        2.1866499220       -2.1962304023
  H         0.2743927320        0.9864157199       -2.2215845685
  O        -0.0298107043       -6.5210921839       -1.0933643185
  H         0.0021424143       -5.5311453888       -1.1226646288
  H        -0.8031132631       -6.7435142146       -0.4648562320
  O         5.7090935537       -1.6927086580        6.0185486672
  H         6.0227718591       -2.5102376528        6.4195407580
  H         5.6793497711       -0.9012395738        6.6521961143
  O        -2.5962982991       -5.7683972037       -4.2195771395
  H        -2.6049028140       -6.7077669400       -4.4728336739
  H        -3.4354537463       -5.5645841736       -3.8483514813
  O        -4.9449687319       -1.4086720170       -3.2473392351
  H        -4.8913021653       -2.2217322989       -3.7674224672
  H        -3.9689548003       -1.0964857745       -3.2341980948
  O         2.2983754229       -8.0809494482       -1.2132412662
  H         1.3003681505       -8.0636283692       -1.1143923954
  H         2.5161940132       -7.1053673603       -1.1768519202
  O         6.7754357543       -3.8965331032       -5.3359261145
  H         7.5499418595       -4.1003001805       -5.8213622687
  H         6.0430158524       -4.4328146397       -5.6479610986
  O        -0.3424844631        4.9658112476        2.9508285728
  H        -0.6418240309        4.1672557959        3.4716379980
  H        -0.6759740908        4.8699377537        2.0551376194
  O        -2.8056288807       -4.0048234272        6.2239057927
  H        -2.3850599469       -4.6322887909        6.8455564859
  H        -2.3797353004       -3.1498233269        6.4330163166
  O        -2.7925113864       -3.4732237158        3.4612331596
  H        -3.1129543056       -3.8620641144        4.2746132111
  H        -3.2856093678       -4.0271447136        2.8274407488
  O         2.4867711476        4.6803618907       -3.9511208166
  H         3.3971373036        4.5081635205       -3.6298163906
  H         1.9790712168        4.6240682409       -3.1152437525
  O         1.6590765104        0.0523137912       -3.1069189687
  H         1.5113564742       -0.5996769003       -2.3563690233
  H         2.5068721250        0.5264194699       -3.0661523880
  O        -1.2023048654       -8.1603479212       -6.3670700282
  H        -0.9055157967       -9.0690551157       -6.5705273597
  H        -2.1798096138       -8.0740016376       -6.5464905196
  O        -0.4761071273        8.3851620636        0.5987466087
  H         0.3632441731        8.3096547993        1.1058350782
  H        -1.2852386123        8.0753854402        1.0587255936
  O         5.9065449362       -6.7989771803       -6.6004398209
  H         5.4130154976       -7.6233171741       -6.9137876216
  H         6.2177506878       -6.2344541440       -7.3198720135
  O        -0.3594330297       -5.2622440761        4.6704297767
  H        -0.4156127476       -6.0988819305        4.1367481919
  H        -1.2931127588       -5.1547968831        4.9497584977
  O        -3.8273131578       -5.5279235466        1.7633664403
  H        -4.1388543582       -6.3621998573        2.1513804320
  H        -4.3955669691       -5.3216936959        1.0405948547
     193
 i =        1, time =        0.500, E =     -1103.0780416057
  O         3.8618615661       -4.7565901540        5.5094978005
  H         4.2148327288       -5.5550084030        5.9961521959
  H         3.0920000376       -4.3226484244        5.9063775119
  O        -3.5427663225        1.7428086302        4.2897874123
  H        -3.3417988064        0.8257693048        4.1542623736
  H        -3.6023477831        1.9355966932        5.2821898119
  O         4.5682446544        2.9323431413       -7.0983656531
  H         3.6679168387        3.2177104279       -6.8133972163
  H         4.4882861650        2.7946060402       -8.0525627704
  O        -2.5737110605       -0.1020453756       -3.4159582223
  H        -2.0457164261        0.4261494092       -2.8325573557
  H        -1.8804884922       -0.6213552438       -3.9227936494
  O        -3.7623668980       -7.7106596217        5.6257876305
  H        -4.6427960614       -7.4221110173        5.9938252500
  H        -3.8516726444       -7.6245522329        4.6610784286
  O        -6.7094928929       -0.0753360740        2.3187580710
  H        -6.0395180262       -0.4626289847        3.0175473592
  H        -6.2613868856        0.7368094144        1.9591461263
  O         4.0136160518       -5.5818842124       -0.4129018452
  H         3.3292560415       -5.6071957072        0.3124573808
  H         3.9118849329       -4.7476137723       -0.8222605898
  O        -2.6723093023       -3.0804078068       -1.2269899017
  H        -3.2341951152       -2.4494072395       -1.7446968769
  H        -2.2117004471       -2.5978267802       -0.5756115912
  O         5.4551832760       -3.1688523456        3.0993944366
  H         4.6941533142       -3.2358013346        3.6355127675
  H         5.2636871161       -3.0650748152        2.1390041788
  O         2.0076010419        3.8026319713       -6.6439682893
  H         1.3655463389        3.0697168460       -6.8009480661
  H         1.8273580990        4.0667496919       -5.7126975026
  O         4.0602953576       -3.8907831157       -3.0585429611
  H         3.2261021915       -3.7181932384       -3.6832711932
  H         4.3517006735       -2.9682123950       -2.9760604302
  O         1.9769550163       -1.8458375420        1.0200854293
  H         1.5810334224       -2.4654303966        1.6442174003
  H         1.6086072314       -1.9212807373        0.0640049095
  O         0.7300107441       -5.7417784087       -5.0110311359
  H         1.4785393090       -6.3203478741       -4.8152136826
  H         0.4503564744       -5.7147817528       -5.9492841250
  O        -7.5205664779       -8.6781197864       -3.2367247450
  H        -7.8692617927       -9.6018340754       -3.0946134819
  H        -7.1373396514       -8.5838570128       -2.3504231838
  O         3.0072810642       -1.6213027031        5.1697615281
  H         3.8539808392       -1.8091043487        5.6855864835
  H         3.1600273160       -0.8293861345        4.6086982688
  O        -0.0949980942        1.8622900881       -6.6871876751
  H         0.2467665568        1.0548602510       -6.3262607773
  H        -0.0519157063        1.7491823036       -7.6536863714
  O         1.3774546244       -3.0813097761        3.6598529829
  H         2.0161820404       -2.6794798361        4.3181062636
  H         1.1013443359       -3.9646687391        3.9790812289
  O        -2.3261453480        2.8031181771        2.2375884603
  H        -1.6172008034        2.1486300719        2.1998114343
  H        -2.7633963837        2.5809334140        3.0965626024
  O         0.8707555685       -0.6622501624       -5.6029786635
  H         1.7111177077       -0.8252545809       -6.1165673250
  H         1.2078533336       -0.2361167498       -4.7575650298
  O        -1.1844700750       -0.7181157019        0.2465627822
  H        -1.1329509500        0.2338541442       -0.0622753410
  H        -0.9331622860       -0.7933749757        1.2020448162
  H        -0.1862075923       -0.7118254912        0.2511509205
  O        -3.8851018668       -9.0154833188       -3.1308021937
  H        -4.4959077475       -8.2804654920       -3.2155517745
  H        -2.9144145020       -8.7354426014       -3.1141671429
  O         4.9768585163        4.5589351505        2.1576890436
  H         4.5734218855        4.0626478483        1.4479892951
  H         4.2006374605        4.9143726265        2.6873528952
  O         4.2110744219        1.0306217214       -3.2103018777
  H         4.6331271875        0.8526889425       -4.0667231904
  H         4.4309479837        0.1906189913       -2.7544260153
  O        -5.2087065081       -6.3426440484       -2.6768692508
  H        -5.3834600706       -6.0920009431       -1.7764705744
  H        -5.9960799169       -6.1030943668       -3.1478505724
  O         4.8261203380       -2.1481474936        0.6938875067
  H         5.1626469065       -1.3872516283        1.1684303880
  H         3.8637381677       -2.0295135007        0.7835285589
  O         2.1062535276        0.9370649266        1.7008942649
  H         2.7613302367        1.5097338869        1.2460325841
  H         2.3156239050        0.0754953436        1.2862056760
  O        -5.7583327381       -5.0893912998       -0.3634046944
  H        -6.6975951843       -5.4367149830       -0.2301253753
  H        -5.9476897150       -4.1884659205       -0.6959075920
  O        -4.8504253826        4.6319890441        2.6324145427
  H        -5.8251756063        4.7390141611        2.3687565129
  H        -4.7790014258        3.6663774975        2.2426261493
  O         5.5120821101        0.8545321604       -5.5912188614
  H         6.4014411038        1.2093670161       -5.3505024162
  H         5.0419982269        1.4490039983       -6.2721351986
  O         0.7395631283       -1.9154682233       -1.2746353063
  H         0.4324888005       -2.6667685184       -1.8487223057
  H        -0.0353631069       -1.6347495324       -0.7388300529
  O         3.9006944207        2.6225339675        0.0835871919
  H         4.6586023320        2.4122721702       -0.5064183377
  H         3.3567586726        3.2559208531       -0.4690233638
  O        -1.1006936574       -1.3692406346        2.9525578019
  H        -0.3327245581       -2.0350220636        3.1093422747
  H        -1.8397497556       -1.9887370611        3.1876116604
  O         2.0720167998       -5.6491050357        1.3598267177
  H         1.2056863153       -6.1364401790        1.2547840514
  H         2.4484234988       -5.8928845528        2.2568332546
  O        -0.6294030395       -3.8287302896       -2.8475481129
  H        -1.5519912969       -3.7816090033       -2.5894246912
  H        -0.5086152766       -4.5969904460       -3.4028122401
  O        -5.2917664569        2.0613978678        1.4338524312
  H        -4.4326410025        1.8894474266        1.9034178649
  H        -5.1476179221        1.9261943900        0.4318492309
  O         1.9614480596       -3.4293896981       -5.2660697765
  H         1.3144805673       -4.2061731767       -5.0383500056
  H         1.2985964019       -2.7696966839       -5.4929193324
  O        -1.1921399592        3.9354696351       -3.3716221496
  H        -1.1926008900        3.9704564143       -4.3646582089
  H        -0.7296182480        4.6632842143       -2.9323208324
  O        -5.4299380516       -5.0044438734        4.2779105544
  H        -6.1171563717       -4.5093022297        3.7862684226
  H        -4.7582865828       -5.3393698673        3.6743683421
  O         2.9758081234        5.7927261377        3.6019954431
  H         3.4198652616        6.4638004059        4.1617276535
  H         2.4533592647        5.2103190375        4.2303229418
  O        -4.0514088236        1.5451306053       -5.0661753590
  H        -3.5230344343        0.7954639009       -4.6187740805
  H        -4.0300945286        2.3462721086       -4.4236144059
  O         3.4835363293        0.5968082389        4.0095713514
  H         2.7907813233        0.5315493154        3.2669656465
  H         4.3289383268        0.4277553844        3.4363398487
  O        -4.6231854035       -1.0115168097        4.0025944700
  H        -5.3405882860       -1.2500945210        4.6334602638
  H        -4.2205098155       -1.8945971249        3.8298266742
  O        -0.2157501527        1.2747317197        3.1177803848
  H         0.6449750879        1.4032433248        2.7206353487
  H        -0.3914904974        0.3131706930        3.0542953374
  O        -1.9936923056        5.0718053105        0.6012359134
  H        -2.3413798174        4.2315545972        0.9987340453
  H        -2.6353468326        5.7599125778        0.8442601532
  O        -1.3081134278       -1.8939118908       -4.9535389841
  H        -0.8705414351       -2.4022834337       -4.2571448178
  H        -0.6025293262       -1.3578754196       -5.4443720903
  O        -5.1388902801        1.8068454942       -1.2875535948
  H        -4.6966895911        2.4743746545       -1.8494823463
  H        -5.4268453003        1.1246936196       -1.8604428755
  O        -7.3796103973       -1.2116850435       -1.9486995716
  H        -6.4169454116       -1.0384811082       -2.1254774053
  H        -7.4839829490       -1.5284152704       -1.0375654488
  O        -0.4605632793        1.4061307112       -1.7229990996
  H        -0.7797640745        2.1832554838       -2.2057591166
  H         0.2613526658        0.9819471007       -2.2292427047
  O        -0.0324134383       -6.5209286438       -1.0940285913
  H         0.0056771597       -5.5307087602       -1.1198101653
  H        -0.8162253635       -6.7469360488       -0.4743004502
  O         5.7105471814       -1.6933720767        6.0204391048
  H         6.0247227061       -2.5153074573        6.4173696011
  H         5.6852657523       -0.8912485490        6.6347937698
  O        -2.5940680119       -5.7678125836       -4.2183828303
  H        -2.6072385127       -6.7152753343       -4.4751614213
  H        -3.4437343073       -5.5727784705       -3.8534516899
  O        -4.9470230152       -1.4116750050       -3.2447054161
  H        -4.8928063763       -2.2389736274       -3.7582972488
  H        -3.9719199552       -1.0838848375       -3.2416975023
  O         2.2975040141       -8.0834280549       -1.2131895347
  H         1.2981657225       -8.0829911283       -1.1141983742
  H         2.5216174319       -7.1138081477       -1.1714055383
  O         6.7794822256       -3.8957294017       -5.3335667294
  H         7.5473147322       -4.0962986622       -5.8137459785
  H         6.0430784380       -4.4274838014       -5.6547276663
  O        -0.3455210451        4.9679915193        2.9521804785
  H        -0.6530055686        4.1684418116        3.4624590521
  H        -0.6915325137        4.8627330688        2.0439251923
  O        -2.8035652846       -4.0049296859        6.2233071918
  H        -2.3849765077       -4.6324741183        6.8494094937
  H        -2.3843000268       -3.1469824078        6.4234060575
  O        -2.7942312857       -3.4739251614        3.4607260607
  H        -3.1098442424       -3.8682395481        4.2681636947
  H        -3.2963872057       -4.0290903640        2.8379029236
  O         2.4857284668        4.6852494994       -3.9510539641
  H         3.3979782708        4.5061370403       -3.6236375987
  H         1.9905767093        4.6358112891       -3.1198459933
  O         1.6572891099        0.0487051373       -3.1076767301
  H         1.5300823863       -0.5986581934       -2.3501265657
  H         2.5088264267        0.5339188208       -3.0665794415
  O        -1.2036204733       -8.1575482613       -6.3695094051
  H        -0.9112426672       -9.0691649163       -6.5665805881
  H        -2.1830324131       -8.0667268291       -6.5505187368
  O        -0.4739629408        8.3842394466        0.5982473137
  H         0.3679411731        8.3151520371        1.1028180370
  H        -1.2982583317        8.0696720654        1.0536869301
  O         5.9080368855       -6.7980984680       -6.6010616784
  H         5.4043369568       -7.6112786393       -6.9110208150
  H         6.2456370604       -6.2408260460       -7.3201494443
  O        -0.3561567583       -5.2636358709        4.6728363005
  H        -0.4051273578       -6.0922320320        4.1400048254
  H        -1.2964400304       -5.1516113065        4.9600615082
  O        -3.8236642948       -5.5251025263        1.7610546008
  H        -4.1393919579       -6.3541921837        2.1493767165
  H        -4.4080964455       -5.3220470839        1.0401583339
     193
 i =        2, time =        1.000, E =     -1103.0885835579
  O         3.8662790289       -4.7604220382        5.5094723994
  H         4.2187929220       -5.5567762618        6.0005236540
  H         3.0846887485       -4.3209209487        5.8980719189
  O        -3.5401522101        1.7407607007        4.2920125317
  H        -3.3276350662        0.8120244778        4.1525361361
  H        -3.6040930688        1.9268905495        5.2885015660
  O         4.5690575432        2.9319779411       -7.0961876512
  H         3.6578291829        3.2085097406       -6.8186858426
  H         4.4792652837        2.8047458027       -8.0588784450
  O        -2.5731556708       -0.0981245529       -3.4155585705
  H        -2.0534282891        0.4379499754       -2.8345695760
  H        -1.8749318857       -0.6273188706       -3.9206620157
  O        -3.7631560753       -7.7105717162        5.6239467518
  H        -4.6501919368       -7.4248625230        5.9993266012
  H        -3.8534665322       -7.6112204769        4.6553383615
  O        -6.7055362847       -0.0754387689        2.3191754646
  H        -6.0391123996       -0.4725306270        3.0269108414
  H        -6.2626054056        0.7352087805        1.9582698685
  O         4.0155886995       -5.5829481596       -0.4136521393
  H         3.3242644226       -5.5958788459        0.3192963683
  H         3.9223592361       -4.7372152040       -0.8155148792
  O        -2.6757915347       -3.0799710468       -1.2280018227
  H        -3.2181529483       -2.4506265098       -1.7475736012
  H        -2.2295160664       -2.5948668059       -0.5697531494
  O         5.4528501651       -3.1690361933        3.0987120787
  H         4.6941855803       -3.2319792568        3.6524435121
  H         5.2618703327       -3.0782151789        2.1390575264
  O         2.0074770581        3.8025088931       -6.6443141263
  H         1.3568789619        3.0728150264       -6.8009373865
  H         1.8175519501        4.0680891758       -5.7126700338
  O         4.0605304452       -3.8892557828       -3.0577513024
  H         3.2241225496       -3.7210280509       -3.6664012663
  H         4.3694268233       -2.9499358653       -2.9645597200
  O         1.9773540128       -1.8464611432        1.0174628898
  H         1.6015213269       -2.4641249395        1.6428695839
  H         1.6024128507       -1.9323506717        0.0698489529
  O         0.7265352578       -5.7407655808       -5.0103132773
  H         1.4803766390       -6.3142604037       -4.8160357946
  H         0.4540564631       -5.7195868536       -5.9514732605
  O        -7.5242307408       -8.6784092298       -3.2365701737
  H        -7.8705637103       -9.6002179433       -3.1059962798
  H        -7.1416495763       -8.5909834756       -2.3496402229
  O         3.0059861500       -1.6229585054        5.1685270233
  H         3.8586321433       -1.8186060714        5.6845073126
  H         3.1584037237       -0.8329710377        4.6033701055
  O        -0.0950142038        1.8630364705       -6.6882809126
  H         0.2560119013        1.0429980056       -6.3352078599
  H        -0.0585891815        1.7597474000       -7.6514053431
  O         1.3755580913       -3.0802282591        3.6606416052
  H         2.0292477063       -2.6819969152        4.3204153705
  H         1.1040381920       -3.9646060621        3.9793600832
  O        -2.3258302598        2.8026966446        2.2408023578
  H        -1.6080609457        2.1615907768        2.2119539854
  H        -2.7700438166        2.5798221596        3.1089772089
  O         0.8671540991       -0.6630385744       -5.6048400126
  H         1.7073348388       -0.8377059941       -6.1246850869
  H         1.2200329258       -0.2379403883       -4.7628572821
  O        -1.1815204650       -0.7200575540        0.2496024138
  H        -1.1356024720        0.2359777498       -0.0533137264
  H        -0.9338551024       -0.7982867492        1.2127530291
  H        -0.1738266516       -0.7113454778        0.2536345892
  O        -3.8835186932       -9.0184610382       -3.1307346261
  H        -4.4905832115       -8.2780582723       -3.2164022891
  H        -2.9076276658       -8.7419908916       -3.1037686364
  O         4.9765616469        4.5623614526        2.1548275627
  H         4.5736957899        4.0569034074        1.4583687794
  H         4.1898350497        4.9236401308        2.6978042174
  O         4.2155106558        1.0322071331       -3.2066657939
  H         4.6407784198        0.8563751735       -4.0716643717
  H         4.4366413657        0.1807751100       -2.7745813914
  O        -5.2059915785       -6.3394119486       -2.6736888298
  H        -5.3882825254       -6.1001457765       -1.7754308011