#     Step Nr.          Time[fs]        Kin.[a.u.]          Temp[K]            Pot.[a.u.]        Cons Qty[a.u.]        UsedTime[s]
         0            0.000000         0.275037913       300.000000000     -1103.075021212     -1102.799983300         0.000000000
         1            0.500000         0.276991764       302.131180261     -1103.078041606     -1102.800022975       904.105748720
         2            1.000000         0.272148499       296.848346724     -1103.088583558     -1102.800261818        86.996204846
         3            1.500000         0.285484810       311.395044110     -1103.105311929     -1102.800641403        86.043218747
         4            2.000000         0.287295836       313.370436834     -1103.118913837     -1102.800876085        90.554263834
         5            2.500000         0.311165720       339.406721142     -1103.130830802     -1102.801022909        88.920238268
         6            3.000000         0.336789277       367.355838951     -1103.137343150     -1102.801039760        89.294264227
         7            3.500000         0.334507099       364.866533544     -1103.138167135     -1102.800899526        87.275233947
         8            4.000000         0.325920485       355.500609312     -1103.135258395     -1102.800681437        88.875235345
         9            4.500000         0.320252193       349.317870479     -1103.131157450     -1102.800512858        79.358229604
        10            5.000000         0.310728952       338.930312229     -1103.128679687     -1102.800427030       421.411161762
        11            5.500000         0.327238335       356.938065819     -1103.132509064     -1102.800514006        81.642234784
        12            6.000000         0.327535270       357.261949775     -1103.136836006     -1102.800635321        80.133229479
        13            6.500000         0.317357750       346.160730981     -1103.141206005     -1102.800717838        84.227200497
        14            7.000000         0.311027097       339.255516647     -1103.142729532     -1102.800754075        84.731281862
        15            7.500000         0.321765726       350.968769975     -1103.140286277     -1102.800708161        83.134217784
        16            8.000000         0.324697807       354.166963149     -1103.139218214     -1102.800695269        91.791244302
        17            8.500000         0.302994241       330.493608650     -1103.135824708     -1102.800664836        87.282254677
        18            9.000000         0.289012030       315.242390798     -1103.133148989     -1102.800676118        82.536231980
        19            9.500000         0.284752274       310.596024567     -1103.128467254     -1102.800626328        80.191227958
        20           10.000000         0.280550208       306.012584690     -1103.126008930     -1102.800598170       490.037347645
        21           10.500000         0.291208756       317.638488163     -1103.125589815     -1102.800552615        86.645246185
        22           11.000000         0.290360977       316.713766426     -1103.125521868     -1102.800520293        86.608238421
        23           11.500000         0.292261928       318.787244884     -1103.126616098     -1102.800551885        81.801226892
        24           12.000000         0.283078358       308.770186404     -1103.128931977     -1102.800566065        81.115229893
        25           12.500000         0.268504408       292.873523450     -1103.129549342     -1102.800537965        82.425227344
        26           13.000000         0.261303372       285.018930464     -1103.129437657     -1102.800504199        81.465225454
        27           13.500000         0.278594329       303.879192455     -1103.130908478     -1102.800478265        80.311226036
        28           14.000000         0.273828456       298.680775100     -1103.135879479     -1102.800512273        81.386223271
        29           14.500000         0.275892174       300.931792566     -1103.143121925     -1102.800607108        80.209220506
        30           15.000000         0.292191850       318.710806563     -1103.148458344     -1102.800669001       687.245911807
        31           15.500000         0.307254956       335.141020738     -1103.151817711     -1102.800681466        85.865233038
        32           16.000000         0.302378602       329.822095349     -1103.153218149     -1102.800666182        83.346228294
        33           16.500000         0.285190949       311.074513277     -1103.152605317     -1102.800623773        87.183228977
        34           17.000000         0.297960347       325.002844732     -1103.153199325     -1102.800615970        81.933238883
        35           17.500000         0.293252847       319.868098245     -1103.153022681     -1102.800608760        85.506214805
        36           18.000000         0.296383296       323.282663171     -1103.154589454     -1102.800672150        82.584242582
        37           18.500000         0.314784007       343.353398443     -1103.154395080     -1102.800683914        84.194233488
        38           19.000000         0.287456324       313.545490518     -1103.151550446     -1102.800628138        81.449221969
        39           19.500000         0.293634544       320.284437486     -1103.150978241     -1102.800569751        80.074225463
        40           20.000000         0.289731563       316.027227166     -1103.155799595     -1102.800670115       665.672815602
        41           20.500000         0.312961174       341.365128126     -1103.162051678     -1102.800814726        82.950225990
        42           21.000000         0.315660519       344.309461996     -1103.167054077     -1102.800969756        83.050215933
        43           21.500000         0.309707675       337.816345752     -1103.168999587     -1102.801012149        81.492233768
        44           22.000000         0.294287991       320.997190578     -1103.169330184     -1102.800982574        82.093227707
        45           22.500000         0.296666106       323.591140384     -1103.167185258     -1102.800901833        83.241233967
        46           23.000000         0.289841268       316.146888577     -1103.167371415     -1102.800903679        82.177210413
        47           23.500000         0.286138958       312.108561886     -1103.170630321     -1102.800962255        82.335219827
        48           24.000000         0.301709546       329.092316789     -1103.174699648     -1102.801030140        83.041246332
        49           24.500000         0.303965017       331.552491400     -1103.179288416     -1102.801080534        85.922221266
        50           25.000000         0.304002782       331.593683255     -1103.181381486     -1102.801117344       502.570369683
        51           25.500000         0.294130755       320.825684250     -1103.181702188     -1102.801099720        79.840227112
        52           26.000000         0.285976787       311.931672743     -1103.184323929     -1102.801171114        82.116232987
        53           26.500000         0.297045291       324.004740348     -1103.184166700     -1102.801196748        85.371228978
        54           27.000000         0.298471484       325.560372056     -1103.183786383     -1102.801168388        84.640234631
        55           27.500000         0.290718227       317.103439985     -1103.183367664     -1102.801087633        84.044227850
        56           28.000000         0.267347570       291.611691704     -1103.184958400     -1102.801050922        85.747229762
        57           28.500000         0.283299672       309.011585978     -1103.186719176     -1102.801086495        86.553244554
        58           29.000000         0.282704583       308.362487537     -1103.184628422     -1102.801032051        86.101234574
        59           29.500000         0.288562675       314.752252890     -1103.183121178     -1102.800983326        88.205246907
        60           30.000000         0.283366549       309.084532708     -1103.183333085     -1102.800957356       641.223741278
        61           30.500000         0.295813444       322.661092198     -1103.187348956     -1102.801037884        82.709239032
        62           31.000000         0.307707189       335.634297475     -1103.188803226     -1102.801043419        82.956213672
        63           31.500000         0.315636957       344.283761457     -1103.188194609     -1102.801020934        81.660216767
        64           32.000000         0.313785393       342.264152306     -1103.186600692     -1102.800985063        84.851232003
        65           32.500000         0.314015190       342.514804956     -1103.183381008     -1102.800945772        81.344212409
        66           33.000000         0.315050113       343.643656696     -1103.177264380     -1102.800800043        83.445229650
        67           33.500000         0.320827370       349.945249368     -1103.175178267     -1102.800726740        81.771203879
        68           34.000000         0.327246468       356.946936679     -1103.176530796     -1102.800787544        85.568226855
        69           34.500000         0.334454164       364.808793861     -1103.179486830     -1102.800845630        82.310204566
        70           35.000000         0.343840097       375.046582715     -1103.180284031     -1102.800806112       584.195609059
        71           35.500000         0.336010127       366.505974145     -1103.179093695     -1102.800727719        84.085238308
        72           36.000000         0.326782100       356.440423145     -1103.180771124     -1102.800753067        80.873189989
        73           36.500000         0.325186375       354.699872195     -1103.181115245     -1102.800775763        83.308240082
        74           37.000000         0.303950609       331.536775313     -1103.182075406     -1102.800830554        84.780230243
        75           37.500000         0.317562935       346.384539001     -1103.184080275     -1102.800890845        85.475230757
        76           38.000000         0.311434388       339.699772966     -1103.183594818     -1102.800835602        83.017226804
        77           38.500000         0.293238925       319.852912534     -1103.182783817     -1102.800734265        84.035223469
        78           39.000000         0.297335988       324.321820095     -1103.182258008     -1102.800645213        92.756237447
        79           39.500000         0.297329077       324.314281956     -1103.182656596     -1102.800593115        87.332254648
        80           40.000000         0.287670309       313.778896559     -1103.184282236     -1102.800591798       537.929460026
        81           40.500000         0.309089881       337.142480929     -1103.188175142     -1102.800687173        74.035167854
        82           41.000000         0.302007175       329.416957598     -1103.192407058     -1102.800782873        80.623248342
        83           41.500000         0.308090953       336.052891445     -1103.196129850     -1102.800878560        74.360200971
        84           42.000000         0.313089476       341.505074441     -1103.199554222     -1102.800976553        85.331225161
        85           42.500000         0.309705411       337.813875871     -1103.198436997     -1102.800984288        76.073210567
        86           43.000000         0.301033529       328.354945430     -1103.198299416     -1102.800969365        73.617196303
        87           43.500000         0.294820179       321.577679117     -1103.198941119     -1102.800991352        79.847206246
        88           44.000000         0.303916236       331.499282803     -1103.198879875     -1102.801006712        79.936229326
        89           44.500000         0.306025994       333.800519348     -1103.197103882     -1102.801008255        87.284241427
        90           45.000000         0.303394813       330.930536351     -1103.193882021     -1102.800961968       715.865957662
        91           45.500000         0.305311307       333.020968782     -1103.191230680     -1102.800894583        72.131196283
        92           46.000000         0.304707639       332.362512711     -1103.186967724     -1102.800781424        73.404186703
        93           46.500000         0.281627550       307.187704055     -1103.183099904     -1102.800691028        82.069247734
        94           47.000000         0.269958997       294.460128949     -1103.181801116     -1102.800666045        84.096225437
        95           47.500000         0.287294132       313.368577983     -1103.186207143     -1102.800771047        82.295224819
        96           48.000000         0.288817447       315.030147149     -1103.190686868     -1102.800864180        81.881225772
        97           48.500000         0.294343174       321.057382396     -1103.193727122     -1102.800902453        81.676217150
        98           49.000000         0.290161510       316.496195839     -1103.193922371     -1102.800892980        74.838204455
        99           49.500000         0.294426211       321.147955739     -1103.191030705     -1102.800805188        81.750226106
       100           50.000000         0.261261252       284.972987928     -1103.187509473     -1102.800711880       599.929649659
       101           50.500000         0.272721421       297.473266788     -1103.186666293     -1102.800640636        80.849221542
       102           51.000000         0.288005358       314.144353601     -1103.188125767     -1102.800630666        72.299205035
       103           51.500000         0.287209180       313.275916329     -1103.188659734     -1102.800603780        74.218211908
       104           52.000000         0.279673233       305.056016670     -1103.191276472     -1102.800667082        82.774226621
       105           52.500000         0.283108646       308.803222523     -1103.195164426     -1102.800774798        80.205229338
       106           53.000000         0.283546759       309.281098886     -1103.199832742     -1102.800891987        80.637169950
       107           53.500000         0.290426047       316.784741961     -1103.203845625     -1102.800978301        75.603252675
       108           54.000000         0.289272835       315.526865992     -1103.207260851     -1102.801045765        73.012202509
       109           54.500000         0.297030219       323.988300429     -1103.209489519     -1102.801050011        81.129235823
       110           55.000000         0.291383833       317.829455339     -1103.207853652     -1102.800966765       562.476539891
       111           55.500000         0.296848652       323.790254024     -1103.205440683     -1102.800897145        74.412204191
       112           56.000000         0.311625845       339.908606474     -1103.203350922     -1102.800860526        83.009231117
       113           56.500000         0.292273776       318.800168517     -1103.201506644     -1102.800844120        81.466220994
       114           57.000000         0.288138308       314.289370193     -1103.200369715     -1102.800834203        84.045230344
       115           57.500000         0.300288817       327.542643639     -1103.199219359     -1102.800798126        72.973201361
       116           58.000000         0.298084061       325.137786759     -1103.197600953     -1102.800751258        73.189188730
       117           58.500000         0.272134152       296.832698135     -1103.199737822     -1102.800808398        76.670220461
       118           59.000000         0.290052076       316.376829143     -1103.202997542     -1102.800888474        72.674199056
       119           59.500000         0.302121877       329.542069789     -1103.203406177     -1102.800940261        71.380194835
       120           60.000000         0.297710309       324.730114269     -1103.202201145     -1102.800897607       571.177613951
       121           60.500000         0.281455880       307.000453443     -1103.201243424     -1102.800847295        75.060209058
       122           61.000000         0.288825397       315.038818692     -1103.202063009     -1102.800864546        79.655216541
       123           61.500000         0.288067314       314.211933169     -1103.204430891     -1102.800948564        73.627194472
       124           62.000000         0.299460867       326.639550264     -1103.204233820     -1102.800987050        76.150218867
       125           62.500000         0.299069280       326.212423254     -1103.203560440     -1102.800976700        74.644197870
       126           63.000000         0.300818467       328.120364080     -1103.201510639     -1102.800858941        76.787206333
       127           63.500000         0.312729969       341.112939251     -1103.201405716     -1102.800795532        72.638207186
       128           64.000000         0.305859161       333.618545421     -1103.197914602     -1102.800730174        72.761194333
       129           64.500000         0.306816987       334.663302462     -1103.197140766     -1102.800725387        75.014196340
       130           65.000000         0.311406892       339.669781331     -1103.196657976     -1102.800751539       525.206457555
       131           65.500000         0.293651269       320.302680498     -1103.196563587     -1102.800782729        74.778184507
       132           66.000000         0.289273625       315.527727869     -1103.195931177     -1102.800822991        74.162213046
       133           66.500000         0.294951082       321.720462710     -1103.190848755     -1102.800737814        72.521199636
       134           67.000000         0.290311549       316.659851718     -1103.186315205     -1102.800651212        72.388203096
       135           67.500000         0.287319020       313.395724537     -1103.181329396     -1102.800534217        74.582199667
       136           68.000000         0.289673646       315.964053263     -1103.177473064     -1102.800442184        74.084209025
       137           68.500000         0.291447590       317.898999198     -1103.176710008     -1102.800401966        73.696203321
       138           69.000000         0.276188042       301.254513737     -1103.177836605     -1102.800430279        74.636200324
       139           69.500000         0.271299287       295.922061707     -1103.182114139     -1102.800533959        73.724202834
       140           70.000000         0.293292887       319.911772339     -1103.188731974     -1102.800720434       472.766297780
       141           70.500000         0.289785334       316.085878522     -1103.192950289     -1102.800868804        74.854197625
       142           71.000000         0.302612704       330.077444398     -1103.193055867     -1102.800938088        71.763192780
       143           71.500000         0.284034993       309.813643453     -1103.189275718     -1102.800892087        77.631222699
       144           72.000000         0.295221337       322.015246096     -1103.185737398     -1102.800754727        73.711203229
       145           72.500000         0.290632535       317.009970786     -1103.179932550     -1102.800525063        73.025190961
       146           73.000000         0.271797540       296.465535611     -1103.178187126     -1102.800448380        72.764197636
       147           73.500000         0.278740411       304.038532673     -1103.179523500     -1102.800538608        72.946218371
       148           74.000000         0.279705508       305.091220298     -1103.183316094     -1102.800671963        71.922190785
       149           74.500000         0.285704514       311.634688008     -1103.186816859     -1102.800781888        72.213195365
       150           75.000000         0.283572189       309.308836243     -1103.190169146     -1102.800881408       500.962385561
       151           75.500000         0.291920323       318.414636017     -1103.193080515     -1102.800932637        74.023207389
       152           76.000000         0.281356516       306.892072268     -1103.193212814     -1102.800856329        82.308219615
       153           76.500000         0.271357801       295.985886583     -1103.191900121     -1102.800724578        72.153208923
       154           77.000000         0.264298189       288.285552920     -1103.190237545     -1102.800615908        73.182210207
       155           77.500000         0.264111556       288.081981773     -1103.193312902     -1102.800648833        73.310183212
       156           78.000000         0.267907021       292.221917984     -1103.197674533     -1102.800702682        69.743183106
       157           78.500000         0.269726039       294.206027332     -1103.205595461     -1102.800825809        81.025229864
       158           79.000000         0.295047367       321.825486554     -1103.212714697     -1102.800958584        76.876220249
       159           79.500000         0.298132747       325.190891828     -1103.215414995     -1102.800988746        73.751193020
       160           80.000000         0.300263789       327.515344432     -1103.212519192     -1102.800949533       575.948587999
       161           80.500000         0.282866031       308.538588366     -1103.207664878     -1102.800856882        76.382205039
       162           81.000000         0.268133266       292.468696345     -1103.200798051     -1102.800708383        68.943208065
